SMILES,pKa,Dissociable_Atoms,Functional_Group,Name,Dissociable_Atoms_Ordered,Functional_Group_Ordered,Dissociation_Order
NCCc1c[nH]cn1,6.11,0:5,amine_primary:amine_secondary,4-(2-Aminoethyl)imidazole (Histamine),0:5,amine_primary:amine_secondary,0(amine_primary) > 5(amine_secondary)
NCCc1c[nH]cn1,5.91,0:5,amine_primary:amine_secondary,4-(2-Aminoethyl)imidazole (Histamine),0:5,amine_primary:amine_secondary,0(amine_primary) > 5(amine_secondary)
NCCc1c[nH]cn1,6.25,0:5,amine_primary:amine_secondary,4-(2-Aminoethyl)imidazole (Histamine),0:5,amine_primary:amine_secondary,0(amine_primary) > 5(amine_secondary)
NCCc1c[nH]cn1,6.46,0:5,amine_primary:amine_secondary,4-(2-Aminoethyl)imidazole (Histamine),0:5,amine_primary:amine_secondary,0(amine_primary) > 5(amine_secondary)
NCCc1c[nH]cn1,5.95,0:5,amine_primary:amine_secondary,4-(2-Aminoethyl)imidazole (Histamine),0:5,amine_primary:amine_secondary,0(amine_primary) > 5(amine_secondary)
CNCCc1c[nH]cn1,9.9,1:6,amine_secondary:amine_secondary,4-(2-Methylaminoethyl)imidazole,1:6,amine_secondary:amine_secondary,1(amine_secondary) > 6(amine_secondary)
CNCCc1c[nH]cn1,5.87,1:6,amine_secondary:amine_secondary,4-(2-Methylaminoethyl)imidazole,1:6,amine_secondary:amine_secondary,1(amine_secondary) > 6(amine_secondary)
N[C@H](CO)Cc1c[nH]cn1,8.84,0:7,amine_primary:amine_secondary,L-4-(2-Amino-3-hydroxypropyl)imidazole (Histidinol),0:7,amine_primary:amine_secondary,0(amine_primary) > 7(amine_secondary)
N[C@H](CO)Cc1c[nH]cn1,5.85,0:7,amine_primary:amine_secondary,L-4-(2-Amino-3-hydroxypropyl)imidazole (Histidinol),0:7,amine_primary:amine_secondary,0(amine_primary) > 7(amine_secondary)
COC(=O)[C@@H](N)Cc1c[nH]cn1,7.22,5:9,amine_primary:amine_secondary,L-Histidine methyl ester,5:9,amine_primary:amine_secondary,5(amine_primary) > 9(amine_secondary)
COC(=O)[C@@H](N)Cc1c[nH]cn1,6.96,5:9,amine_primary:amine_secondary,L-Histidine methyl ester,5:9,amine_primary:amine_secondary,5(amine_primary) > 9(amine_secondary)
COC(=O)[C@@H](N)Cc1c[nH]cn1,5.27,5:9,amine_primary:amine_secondary,L-Histidine methyl ester,5:9,amine_primary:amine_secondary,5(amine_primary) > 9(amine_secondary)
COC(=O)[C@@H](N)Cc1c[nH]cn1,5.06,5:9,amine_primary:amine_secondary,L-Histidine methyl ester,5:9,amine_primary:amine_secondary,5(amine_primary) > 9(amine_secondary)
N[C@@H](Cc1c[nH]cn1)C(N)=O,7.63,0:9,amine_primary:amine_primary,L-Histidinamide,0:9,amine_primary:amine_primary,0(amine_primary) > 9(amine_primary)
N[C@@H](Cc1c[nH]cn1)C(N)=O,5.7,0:9,amine_primary:amine_primary,L-Histidinamide,0:9,amine_primary:amine_primary,0(amine_primary) > 9(amine_primary)
NCC(=O)NCCc1c[nH]cn1,8.04,0:4,amine_primary:amine_secondary,Glycylhistamine,0:4,amine_primary:amine_secondary,0(amine_primary) > 4(amine_secondary)
NCC(=O)NCCc1c[nH]cn1,6.78,0:4,amine_primary:amine_secondary,Glycylhistamine,0:4,amine_primary:amine_secondary,0(amine_primary) > 4(amine_secondary)
COC(=O)[C@H](Cc1c[nH]cn1)NC(=O)CNC(=O)CN,7.47,19:8,amine_primary:amine_secondary,Glycylglycyl-L-histidine methyl ester,19:8,amine_primary:amine_secondary,19(amine_primary) > 8(amine_secondary)
COC(=O)[C@H](Cc1c[nH]cn1)NC(=O)CNC(=O)CN,6.12,19:8,amine_primary:amine_secondary,Glycylglycyl-L-histidine methyl ester,19:8,amine_primary:amine_secondary,19(amine_primary) > 8(amine_secondary)
CNC(=O)[C@H](Cc1c[nH]cn1)NC(=O)CNC(=O)CN,7.87,19:1,amine_primary:amine_secondary,Glycylglycyl-L-histidine methyl amide,19:1,amine_primary:amine_secondary,19(amine_primary) > 1(amine_secondary)
CNC(=O)[C@H](Cc1c[nH]cn1)NC(=O)CNC(=O)CN,6.33,19:1,amine_primary:amine_secondary,Glycylglycyl-L-histidine methyl amide,19:1,amine_primary:amine_secondary,19(amine_primary) > 1(amine_secondary)
CCOC(=O)CNC(=O)CNC(=O)[C@H](Cc1c[nH]cn1)NC(=O)CNC(=O)CN,7.36,28:6,amine_primary:amine_secondary,Glycylglycyl-L-histidylglycylglycine ethyl ester,28:6,amine_primary:amine_secondary,28(amine_primary) > 6(amine_secondary)
CCOC(=O)CNC(=O)CNC(=O)[C@H](Cc1c[nH]cn1)NC(=O)CNC(=O)CN,6.01,28:6,amine_primary:amine_secondary,Glycylglycyl-L-histidylglycylglycine ethyl ester,28:6,amine_primary:amine_secondary,28(amine_primary) > 6(amine_secondary)
C(c1[nH]ccn1)c2[nH]ccn2,6.87,10:21,heterocyclic_nitrogen:heterocyclic_nitrogen,Bis(2-imidazolyl)methane,10:21,heterocyclic_nitrogen:heterocyclic_nitrogen,10(heterocyclic_nitrogen) > 21(heterocyclic_nitrogen)
C(c1[nH]ccn1)c2[nH]ccn2,6.69,10:21,heterocyclic_nitrogen:heterocyclic_nitrogen,Bis(2-imidazolyl)methane,10:21,heterocyclic_nitrogen:heterocyclic_nitrogen,10(heterocyclic_nitrogen) > 21(heterocyclic_nitrogen)
C(c1[nH]ccn1)c2[nH]ccn2,4.66,10:21,heterocyclic_nitrogen:heterocyclic_nitrogen,Bis(2-imidazolyl)methane,10:21,heterocyclic_nitrogen:heterocyclic_nitrogen,10(heterocyclic_nitrogen) > 21(heterocyclic_nitrogen)
C(c1[nH]ccn1)c2[nH]ccn2,4.38,10:21,heterocyclic_nitrogen:heterocyclic_nitrogen,Bis(2-imidazolyl)methane,10:21,heterocyclic_nitrogen:heterocyclic_nitrogen,10(heterocyclic_nitrogen) > 21(heterocyclic_nitrogen)
C(CNCc1c[nH]cn1)NCc2c[nH]cn2,9.05,2:6:9:13,amine_secondary:amine_secondary:amine_secondary:amine_secondary,"N,N'-Bis(4-imidazolylmethyl)ethylenediamine",2:6:9:13,amine_secondary:amine_secondary:amine_secondary:amine_secondary,2(amine_secondary) > 6(amine_secondary) > 9(amine_secondary) > 13(amine_secondary)
C(CNCc1c[nH]cn1)NCc2c[nH]cn2,6.56,2:6:9:13,amine_secondary:amine_secondary:amine_secondary:amine_secondary,"N,N'-Bis(4-imidazolylmethyl)ethylenediamine",2:6:9:13,amine_secondary:amine_secondary:amine_secondary:amine_secondary,2(amine_secondary) > 6(amine_secondary) > 9(amine_secondary) > 13(amine_secondary)
C(CNCc1c[nH]cn1)NCc2c[nH]cn2,4.26,2:6:9:13,amine_secondary:amine_secondary:amine_secondary:amine_secondary,"N,N'-Bis(4-imidazolylmethyl)ethylenediamine",2:6:9:13,amine_secondary:amine_secondary:amine_secondary:amine_secondary,2(amine_secondary) > 6(amine_secondary) > 9(amine_secondary) > 13(amine_secondary)
C(CNCc1c[nH]cn1)NCc2c[nH]cn2,3.21,2:6:9:13,amine_secondary:amine_secondary:amine_secondary:amine_secondary,"N,N'-Bis(4-imidazolylmethyl)ethylenediamine",2:6:9:13,amine_secondary:amine_secondary:amine_secondary:amine_secondary,2(amine_secondary) > 6(amine_secondary) > 9(amine_secondary) > 13(amine_secondary)
C(COCCNCc1c[nH]cn1)NCc2c[nH]cn2,9.16,5:9:12:16,amine_secondary:amine_secondary:amine_secondary:amine_secondary,"1,9-Di-4-imidazolyl-5-oxa-2,8-diazanonane",5:9:12:16,amine_secondary:amine_secondary:amine_secondary:amine_secondary,5(amine_secondary) > 9(amine_secondary) > 12(amine_secondary) > 16(amine_secondary)
C(COCCNCc1c[nH]cn1)NCc2c[nH]cn2,8.17,5:9:12:16,amine_secondary:amine_secondary:amine_secondary:amine_secondary,"1,9-Di-4-imidazolyl-5-oxa-2,8-diazanonane",5:9:12:16,amine_secondary:amine_secondary:amine_secondary:amine_secondary,5(amine_secondary) > 9(amine_secondary) > 12(amine_secondary) > 16(amine_secondary)
C(COCCNCc1c[nH]cn1)NCc2c[nH]cn2,4.66,5:9:12:16,amine_secondary:amine_secondary:amine_secondary:amine_secondary,"1,9-Di-4-imidazolyl-5-oxa-2,8-diazanonane",5:9:12:16,amine_secondary:amine_secondary:amine_secondary:amine_secondary,5(amine_secondary) > 9(amine_secondary) > 12(amine_secondary) > 16(amine_secondary)
C(COCCNCc1c[nH]cn1)NCc2c[nH]cn2,3.88,5:9:12:16,amine_secondary:amine_secondary:amine_secondary:amine_secondary,"1,9-Di-4-imidazolyl-5-oxa-2,8-diazanonane",5:9:12:16,amine_secondary:amine_secondary:amine_secondary:amine_secondary,5(amine_secondary) > 9(amine_secondary) > 12(amine_secondary) > 16(amine_secondary)
C(CSSCCNCc1c[nH]cn1)NCc2c[nH]cn2,8.74,6:10:13:17,amine_secondary:amine_secondary:amine_secondary:amine_secondary,"1,10-Di-4-imidazolyl-5,6-dithia-2,9-diazadecane",6:10:13:17,amine_secondary:amine_secondary:amine_secondary:amine_secondary,6(amine_secondary) > 10(amine_secondary) > 13(amine_secondary) > 17(amine_secondary)
C(CSSCCNCc1c[nH]cn1)NCc2c[nH]cn2,7.85,6:10:13:17,amine_secondary:amine_secondary:amine_secondary:amine_secondary,"1,10-Di-4-imidazolyl-5,6-dithia-2,9-diazadecane",6:10:13:17,amine_secondary:amine_secondary:amine_secondary:amine_secondary,6(amine_secondary) > 10(amine_secondary) > 13(amine_secondary) > 17(amine_secondary)
C(CSSCCNCc1c[nH]cn1)NCc2c[nH]cn2,4.62,6:10:13:17,amine_secondary:amine_secondary:amine_secondary:amine_secondary,"1,10-Di-4-imidazolyl-5,6-dithia-2,9-diazadecane",6:10:13:17,amine_secondary:amine_secondary:amine_secondary:amine_secondary,6(amine_secondary) > 10(amine_secondary) > 13(amine_secondary) > 17(amine_secondary)
C(CSSCCNCc1c[nH]cn1)NCc2c[nH]cn2,3.89,6:10:13:17,amine_secondary:amine_secondary:amine_secondary:amine_secondary,"1,10-Di-4-imidazolyl-5,6-dithia-2,9-diazadecane",6:10:13:17,amine_secondary:amine_secondary:amine_secondary:amine_secondary,6(amine_secondary) > 10(amine_secondary) > 13(amine_secondary) > 17(amine_secondary)
[nH]1cncn1,9.82,6:8,pyridine_nitrogen:pyridine_nitrogen,"1,2,4-Triazole",6:8,pyridine_nitrogen:pyridine_nitrogen,6(pyridine_nitrogen) > 8(pyridine_nitrogen)
[nH]1cncn1,9.55,6:8,pyridine_nitrogen:pyridine_nitrogen,"1,2,4-Triazole",6:8,pyridine_nitrogen:pyridine_nitrogen,6(pyridine_nitrogen) > 8(pyridine_nitrogen)
[nH]1cncn1,9.86,6:8,pyridine_nitrogen:pyridine_nitrogen,"1,2,4-Triazole",6:8,pyridine_nitrogen:pyridine_nitrogen,6(pyridine_nitrogen) > 8(pyridine_nitrogen)
[nH]1cncn1,9.94,6:8,pyridine_nitrogen:pyridine_nitrogen,"1,2,4-Triazole",6:8,pyridine_nitrogen:pyridine_nitrogen,6(pyridine_nitrogen) > 8(pyridine_nitrogen)
[nH]1cncn1,10.2,6:8,pyridine_nitrogen:pyridine_nitrogen,"1,2,4-Triazole",6:8,pyridine_nitrogen:pyridine_nitrogen,6(pyridine_nitrogen) > 8(pyridine_nitrogen)
[nH]1cncn1,10.0,6:8,pyridine_nitrogen:pyridine_nitrogen,"1,2,4-Triazole",6:8,pyridine_nitrogen:pyridine_nitrogen,6(pyridine_nitrogen) > 8(pyridine_nitrogen)
[nH]1cncn1,2.38,6:8,pyridine_nitrogen:pyridine_nitrogen,"1,2,4-Triazole",6:8,pyridine_nitrogen:pyridine_nitrogen,6(pyridine_nitrogen) > 8(pyridine_nitrogen)
[nH]1cncn1,2.29,6:8,pyridine_nitrogen:pyridine_nitrogen,"1,2,4-Triazole",6:8,pyridine_nitrogen:pyridine_nitrogen,6(pyridine_nitrogen) > 8(pyridine_nitrogen)
[nH]1cncn1,2.51,6:8,pyridine_nitrogen:pyridine_nitrogen,"1,2,4-Triazole",6:8,pyridine_nitrogen:pyridine_nitrogen,6(pyridine_nitrogen) > 8(pyridine_nitrogen)
[nH]1cncn1,2.69,6:8,pyridine_nitrogen:pyridine_nitrogen,"1,2,4-Triazole",6:8,pyridine_nitrogen:pyridine_nitrogen,6(pyridine_nitrogen) > 8(pyridine_nitrogen)
[nH]1cncn1,2.95,6:8,pyridine_nitrogen:pyridine_nitrogen,"1,2,4-Triazole",6:8,pyridine_nitrogen:pyridine_nitrogen,6(pyridine_nitrogen) > 8(pyridine_nitrogen)
[nH]1cncn1,2.37,6:8,pyridine_nitrogen:pyridine_nitrogen,"1,2,4-Triazole",6:8,pyridine_nitrogen:pyridine_nitrogen,6(pyridine_nitrogen) > 8(pyridine_nitrogen)
Nc1n[nH]cn1,10.41,0:3,aniline:amine_secondary,"3-Amino-1,2,4-triazole",3:0,amine_secondary:aniline,3(amine_secondary) > 0(aniline)
Nc1n[nH]cn1,10.2,0:3,aniline:amine_secondary,"3-Amino-1,2,4-triazole",3:0,amine_secondary:aniline,3(amine_secondary) > 0(aniline)
Nc1n[nH]cn1,10.45,0:3,aniline:amine_secondary,"3-Amino-1,2,4-triazole",3:0,amine_secondary:aniline,3(amine_secondary) > 0(aniline)
Nc1n[nH]cn1,10.43,0:3,aniline:amine_secondary,"3-Amino-1,2,4-triazole",3:0,amine_secondary:aniline,3(amine_secondary) > 0(aniline)
Nc1n[nH]cn1,10.57,0:3,aniline:amine_secondary,"3-Amino-1,2,4-triazole",3:0,amine_secondary:aniline,3(amine_secondary) > 0(aniline)
Nc1n[nH]cn1,4.17,0:3,aniline:amine_secondary,"3-Amino-1,2,4-triazole",3:0,amine_secondary:aniline,3(amine_secondary) > 0(aniline)
Nc1n[nH]cn1,4.03,0:3,aniline:amine_secondary,"3-Amino-1,2,4-triazole",3:0,amine_secondary:aniline,3(amine_secondary) > 0(aniline)
Nc1n[nH]cn1,4.33,0:3,aniline:amine_secondary,"3-Amino-1,2,4-triazole",3:0,amine_secondary:aniline,3(amine_secondary) > 0(aniline)
Nc1n[nH]cn1,4.35,0:3,aniline:amine_secondary,"3-Amino-1,2,4-triazole",3:0,amine_secondary:aniline,3(amine_secondary) > 0(aniline)
Nc1n[nH]cn1,4.15,0:3,aniline:amine_secondary,"3-Amino-1,2,4-triazole",3:0,amine_secondary:aniline,3(amine_secondary) > 0(aniline)
Oc1[nH]nnn1,10.26,0:2,phenol:amine_secondary,5-Hydroxytetrazole,0:2,phenol:amine_secondary,0(phenol) > 2(amine_secondary)
Oc1[nH]nnn1,5.4,0:2,phenol:amine_secondary,5-Hydroxytetrazole,0:2,phenol:amine_secondary,0(phenol) > 2(amine_secondary)
OC(=O)c1nccnc1C(O)=O,3.25,0:10,carboxylic_acid:carboxylic_acid,"1,4-Diazine-2,3-dicarboxylic acid",0:10,carboxylic_acid:carboxylic_acid,0(carboxylic_acid) > 10(carboxylic_acid)
OC(=O)c1nccnc1C(O)=O,2.84,0:10,carboxylic_acid:carboxylic_acid,"1,4-Diazine-2,3-dicarboxylic acid",0:10,carboxylic_acid:carboxylic_acid,0(carboxylic_acid) > 10(carboxylic_acid)
OC(=O)c1nccnc1C(O)=O,1.5,0:10,carboxylic_acid:carboxylic_acid,"1,4-Diazine-2,3-dicarboxylic acid",0:10,carboxylic_acid:carboxylic_acid,0(carboxylic_acid) > 10(carboxylic_acid)
O=C1NC=CC=C1,9.5,3:1,amine_secondary:carbonyl,"2-Hydroxypyridine (1,2-Dihydropyridin-2-one)",3:1,amine_secondary:carbonyl,3(amine_secondary) > 1(carbonyl)
O=C1NC=CC=C1,1.25,3:1,amine_secondary:carbonyl,"2-Hydroxypyridine (1,2-Dihydropyridin-2-one)",3:1,amine_secondary:carbonyl,3(amine_secondary) > 1(carbonyl)
O=C1C=CNC=C1,3.52,5:1,amine_secondary:carbonyl,"4-Hydroxypyridine (1,4-Dihydropyridin-4-one)",5:1,amine_secondary:carbonyl,5(amine_secondary) > 1(carbonyl)
O=C1C=CNC=C1,3.23,5:1,amine_secondary:carbonyl,"4-Hydroxypyridine (1,4-Dihydropyridin-4-one)",5:1,amine_secondary:carbonyl,5(amine_secondary) > 1(carbonyl)
ON1C=CC=CC1=O,5.86,1:0,tertiary_amine:hydroxyl_group,"1-Hydroxy-1,2-dihydropyridin-2-one",1:0,tertiary_amine:hydroxyl_group,1(tertiary_amine) > 0(hydroxyl_group)
ON1C=CC=CC1=O,1.2,1:0,tertiary_amine:hydroxyl_group,"1-Hydroxy-1,2-dihydropyridin-2-one",1:0,tertiary_amine:hydroxyl_group,1(tertiary_amine) > 0(hydroxyl_group)
CC1=C(O)C(=O)C=CN1,9.8,3:8,phenol:amine_secondary,"2-Methyl-3,4-dihydroxypyridine (2-Methyl-3-hydroxy-1,4-dihydropyridin-4-one)",3:8,phenol:amine_secondary,3(phenol) > 8(amine_secondary)
CC1=C(O)C(=O)C=CN1,9.58,3:8,phenol:amine_secondary,"2-Methyl-3,4-dihydroxypyridine (2-Methyl-3-hydroxy-1,4-dihydropyridin-4-one)",3:8,phenol:amine_secondary,3(phenol) > 8(amine_secondary)
CC1=C(O)C(=O)C=CN1,10.1,3:8,phenol:amine_secondary,"2-Methyl-3,4-dihydroxypyridine (2-Methyl-3-hydroxy-1,4-dihydropyridin-4-one)",3:8,phenol:amine_secondary,3(phenol) > 8(amine_secondary)
CC1=C(O)C(=O)C=CN1,3.65,3:8,phenol:amine_secondary,"2-Methyl-3,4-dihydroxypyridine (2-Methyl-3-hydroxy-1,4-dihydropyridin-4-one)",3:8,phenol:amine_secondary,3(phenol) > 8(amine_secondary)
CC1=C(O)C(=O)C=CN1,3.74,3:8,phenol:amine_secondary,"2-Methyl-3,4-dihydroxypyridine (2-Methyl-3-hydroxy-1,4-dihydropyridin-4-one)",3:8,phenol:amine_secondary,3(phenol) > 8(amine_secondary)
CC1=C(O)C(=O)C=CN1,3.62,3:8,phenol:amine_secondary,"2-Methyl-3,4-dihydroxypyridine (2-Methyl-3-hydroxy-1,4-dihydropyridin-4-one)",3:8,phenol:amine_secondary,3(phenol) > 8(amine_secondary)
CN1C=CC(=O)C(=C1C)O,9.81,1:8,tertiary_amine:hydroxyl_group,"1,2-Dimethyl-3,4-dihydroxypyridine (1,2-Dimethyl-3-hydroxy-1,4-dihydropyridin-4-one)",1:8,tertiary_amine:hydroxyl_group,1(tertiary_amine) > 8(hydroxyl_group)
CN1C=CC(=O)C(=C1C)O,9.64,1:8,tertiary_amine:hydroxyl_group,"1,2-Dimethyl-3,4-dihydroxypyridine (1,2-Dimethyl-3-hydroxy-1,4-dihydropyridin-4-one)",1:8,tertiary_amine:hydroxyl_group,1(tertiary_amine) > 8(hydroxyl_group)
CN1C=CC(=O)C(=C1C)O,10.16,1:8,tertiary_amine:hydroxyl_group,"1,2-Dimethyl-3,4-dihydroxypyridine (1,2-Dimethyl-3-hydroxy-1,4-dihydropyridin-4-one)",1:8,tertiary_amine:hydroxyl_group,1(tertiary_amine) > 8(hydroxyl_group)
CN1C=CC(=O)C(=C1C)O,3.66,1:8,tertiary_amine:hydroxyl_group,"1,2-Dimethyl-3,4-dihydroxypyridine (1,2-Dimethyl-3-hydroxy-1,4-dihydropyridin-4-one)",1:8,tertiary_amine:hydroxyl_group,1(tertiary_amine) > 8(hydroxyl_group)
CN1C=CC(=O)C(=C1C)O,3.73,1:8,tertiary_amine:hydroxyl_group,"1,2-Dimethyl-3,4-dihydroxypyridine (1,2-Dimethyl-3-hydroxy-1,4-dihydropyridin-4-one)",1:8,tertiary_amine:hydroxyl_group,1(tertiary_amine) > 8(hydroxyl_group)
CN1C=CC(=O)C(=C1C)O,3.69,1:8,tertiary_amine:hydroxyl_group,"1,2-Dimethyl-3,4-dihydroxypyridine (1,2-Dimethyl-3-hydroxy-1,4-dihydropyridin-4-one)",1:8,tertiary_amine:hydroxyl_group,1(tertiary_amine) > 8(hydroxyl_group)
CCN1C=CC(=O)C(=C1CC)O,9.93,2:11,tertiary_amine:hydroxyl_group,"1,2-Diethyl-3,4-dihydroxypyridine (1,2-Diethyl-3-hydroxy-1,4-dihydropyridin-4-one)",2:11,tertiary_amine:hydroxyl_group,2(tertiary_amine) > 11(hydroxyl_group)
CCN1C=CC(=O)C(=C1CC)O,3.81,2:11,tertiary_amine:hydroxyl_group,"1,2-Diethyl-3,4-dihydroxypyridine (1,2-Diethyl-3-hydroxy-1,4-dihydropyridin-4-one)",2:11,tertiary_amine:hydroxyl_group,2(tertiary_amine) > 11(hydroxyl_group)
CCN1C=CC(=O)C(=C1C)O,9.81,2:9,tertiary_amine:hydroxyl_group,"1-Ethyl-2-methyl-3,4-dihydroxypyridine (1-Ethyl-2-methyl-3-hydroxy-1,4-dihydropyridin-4-one)",2:9,tertiary_amine:hydroxyl_group,2(tertiary_amine) > 9(hydroxyl_group)
CCN1C=CC(=O)C(=C1C)O,3.64,2:9,tertiary_amine:hydroxyl_group,"1-Ethyl-2-methyl-3,4-dihydroxypyridine (1-Ethyl-2-methyl-3-hydroxy-1,4-dihydropyridin-4-one)",2:9,tertiary_amine:hydroxyl_group,2(tertiary_amine) > 9(hydroxyl_group)
CCCCCCN1C=CC(=O)C(=C1C)O,9.92,6:13,tertiary_amine:hydroxyl_group,"1-Hexyl-2-methyl-3,4-dihydroxypyridine (1-Hexyl-2-methyl-3-hydroxy-1,4-dihydropyridin-4-one)",6:13,tertiary_amine:hydroxyl_group,6(tertiary_amine) > 13(hydroxyl_group)
CCCCCCN1C=CC(=O)C(=C1C)O,3.59,6:13,tertiary_amine:hydroxyl_group,"1-Hexyl-2-methyl-3,4-dihydroxypyridine (1-Hexyl-2-methyl-3-hydroxy-1,4-dihydropyridin-4-one)",6:13,tertiary_amine:hydroxyl_group,6(tertiary_amine) > 13(hydroxyl_group)
OCc1ncccc1O,8.6,0:8,alcohol:phenol,3-Hydroxy-2-hydroxymethylpyridine,8:0,phenol:alcohol,8(phenol) > 0(alcohol)
OCc1ncccc1O,9.07,0:8,alcohol:phenol,3-Hydroxy-2-hydroxymethylpyridine,8:0,phenol:alcohol,8(phenol) > 0(alcohol)
OCc1ncccc1O,4.74,0:8,alcohol:phenol,3-Hydroxy-2-hydroxymethylpyridine,8:0,phenol:alcohol,8(phenol) > 0(alcohol)
OCc1ncccc1O,5.0,0:8,alcohol:phenol,3-Hydroxy-2-hydroxymethylpyridine,8:0,phenol:alcohol,8(phenol) > 0(alcohol)
OCc1ccncc1O,8.95,0:8,alcohol:phenol,3-Hydroxy-4-hydroxymethylpyridine,8:0,phenol:alcohol,8(phenol) > 0(alcohol)
OCc1ccncc1O,5.0,0:8,alcohol:phenol,3-Hydroxy-4-hydroxymethylpyridine,8:0,phenol:alcohol,8(phenol) > 0(alcohol)
Cc1ncc(CO)c(C)c1O,9.34,6:10,alcohol:phenol,"3-Hydroxy-4-hydroxymethyl-2,5-dimethylpyridine (Deoxypyridoxine)",10:6,phenol:alcohol,10(phenol) > 6(alcohol)
Cc1ncc(CO)c(C)c1O,5.36,6:10,alcohol:phenol,"3-Hydroxy-4-hydroxymethyl-2,5-dimethylpyridine (Deoxypyridoxine)",10:6,phenol:alcohol,10(phenol) > 6(alcohol)
Cc1ncc(CO)c(CO)c1O,8.81,11:6,phenol:alcohol,"3-Hydroxy-4,5-bis(hydroxymethyl)-2-methylpyridine (Pyridoxine)",11:6,phenol:alcohol,11(phenol) > 6(alcohol)
Cc1ncc(CO)c(CO)c1O,8.66,11:6,phenol:alcohol,"3-Hydroxy-4,5-bis(hydroxymethyl)-2-methylpyridine (Pyridoxine)",11:6,phenol:alcohol,11(phenol) > 6(alcohol)
Cc1ncc(CO)c(CO)c1O,8.94,11:6,phenol:alcohol,"3-Hydroxy-4,5-bis(hydroxymethyl)-2-methylpyridine (Pyridoxine)",11:6,phenol:alcohol,11(phenol) > 6(alcohol)
Cc1ncc(CO)c(CO)c1O,9.04,11:6,phenol:alcohol,"3-Hydroxy-4,5-bis(hydroxymethyl)-2-methylpyridine (Pyridoxine)",11:6,phenol:alcohol,11(phenol) > 6(alcohol)
Cc1ncc(CO)c(CO)c1O,4.85,11:6,phenol:alcohol,"3-Hydroxy-4,5-bis(hydroxymethyl)-2-methylpyridine (Pyridoxine)",11:6,phenol:alcohol,11(phenol) > 6(alcohol)
Cc1ncc(CO)c(CO)c1O,4.78,11:6,phenol:alcohol,"3-Hydroxy-4,5-bis(hydroxymethyl)-2-methylpyridine (Pyridoxine)",11:6,phenol:alcohol,11(phenol) > 6(alcohol)
Cc1ncc(CO)c(CO)c1O,4.86,11:6,phenol:alcohol,"3-Hydroxy-4,5-bis(hydroxymethyl)-2-methylpyridine (Pyridoxine)",11:6,phenol:alcohol,11(phenol) > 6(alcohol)
Cc1ncc(CO)c(CO)c1O,4.84,11:6,phenol:alcohol,"3-Hydroxy-4,5-bis(hydroxymethyl)-2-methylpyridine (Pyridoxine)",11:6,phenol:alcohol,11(phenol) > 6(alcohol)
Oc1cnccc1C=O,6.7,0:2,phenol:pyridine_nitrogen,3-Hydroxypyridine-4-carboxaldehyde,0:2,phenol:pyridine_nitrogen,0(phenol) > 2(pyridine_nitrogen)
Oc1cnccc1C=O,6.77,0:2,phenol:pyridine_nitrogen,3-Hydroxypyridine-4-carboxaldehyde,0:2,phenol:pyridine_nitrogen,0(phenol) > 2(pyridine_nitrogen)