SMILES,pKa,Dissociable_Atoms,Functional_Group,Name
NCCCCc1cccnc1,10.16,9,pyridine_nitrogen,3-(4-Aminobutyl)pyridine
NCCCCc1cccnc1,5.52,9,pyridine_nitrogen,3-(4-Aminobutyl)pyridine
NCCCCc1ccncc1,10.18,8,pyridine_nitrogen,4-(4-Aminobutyl)pyridine
NCCCCc1ccncc1,5.81,8,pyridine_nitrogen,4-(4-Aminobutyl)pyridine
NCCCCCc1ccccn1,10.38,11,pyridine_nitrogen,2-(5-Aminopentyl)pyridine
NCCCCCc1ccccn1,5.7,11,pyridine_nitrogen,2-(5-Aminopentyl)pyridine
NCCCCCc1cccnc1,10.34,10,pyridine_nitrogen,3-(5-Aminopentyl)pyridine
NCCCCCc1cccnc1,5.61,10,pyridine_nitrogen,3-(5-Aminopentyl)pyridine
NCCCCCc1ccncc1,10.3,9,pyridine_nitrogen,4-(5-Aminopentyl)pyridine
NCCCCCc1ccncc1,5.99,9,pyridine_nitrogen,4-(5-Aminopentyl)pyridine
Nc1ccc(Br)cn1,4.91,11,heterocyclic_nitrogen,2-Amino-5-bromopyridine
Nc1ncccc1[N+]([O-])=O,2.42,9,n_oxide,2-Amino-3-nitropyridine
Nc1ccc(cn1)[N+]([O-])=O,2.8,11,n_oxide,2-Amino-5-nitropyridine
Nc1cccnc1[N+]([O-])=O,0.0,5,pyridine_nitrogen,3-Amino-2-nitropyridine
Nc1ccncc1[N+]([O-])=O,5.05,4,pyridine_nitrogen,4-Amino-3-nitropyridine
NNc1ccccn1,7.24,7,pyridine_nitrogen,2-Hydrazinopyridine (2-Pyridylhydrazine)
Cc1cc(C)c(CN)c(N)n1,9.14,7:9,amine_primary:amine_primary,"2-Amino-3-aminomethyl-4,6-dimethylpyridine"
Cc1cc(C)c(CN)c(N)n1,6.6,7:9,amine_primary:amine_primary,"2-Amino-3-aminomethyl-4,6-dimethylpyridine"
COCc1cc(C)nc(N)c1CN,8.96,9:12,amine_primary:amine_primary,2-Amino-3-aminomethyl-6-methyl-4-methoxymethylpyridine
COCc1cc(C)nc(N)c1CN,5.78,9:12,amine_primary:amine_primary,2-Amino-3-aminomethyl-6-methyl-4-methoxymethylpyridine
COCc1cc(C)c(CN)c(N)n1,8.96,9:11,amine_primary:amine_primary,2-Amino-3-aminomethyl-4-methyl-6-methoxymethylpyridine
COCc1cc(C)c(CN)c(N)n1,5.41,9:11,amine_primary:amine_primary,2-Amino-3-aminomethyl-4-methyl-6-methoxymethylpyridine
NCc1cccc(CN)n1,9.53,0:8,amine_primary:amine_primary,"2,6-Bis(aminomethyl)pyridine"
NCc1cccc(CN)n1,9.15,0:8,amine_primary:amine_primary,"2,6-Bis(aminomethyl)pyridine"
NCCc1cccc(CCN)n1,10.34,14,ring_nitrogen,"2,6-Bis(2-aminoethyl)pyridine"
NCCc1cccc(CCN)n1,9.71,14,ring_nitrogen,"2,6-Bis(2-aminoethyl)pyridine"
NCCc1cccc(CCN)n1,3.43,14,ring_nitrogen,"2,6-Bis(2-aminoethyl)pyridine"
CNCc1ccccn1,8.91,8,pyridine_nitrogen,2-(Methylaminomethyl)pyridine
CNCc1ccccn1,9.01,8,pyridine_nitrogen,2-(Methylaminomethyl)pyridine
CNCc1ccccn1,8.96,8,pyridine_nitrogen,2-(Methylaminomethyl)pyridine
CNCc1ccccn1,1.91,8,pyridine_nitrogen,2-(Methylaminomethyl)pyridine
CNCc1cccc(C)n1,9.05,12,ring_nitrogen,6-Methyl-2-(methylaminomethyl)pyridine
CNCc1cccc(C)n1,8.82,12,ring_nitrogen,6-Methyl-2-(methylaminomethyl)pyridine
CNCc1cccc(C)n1,2.92,12,ring_nitrogen,6-Methyl-2-(methylaminomethyl)pyridine
CNCCc1ccccn1,9.96,9,pyridine_nitrogen,2-[2-(Methylamino)ethyl]pyridine
CNCCc1ccccn1,4.02,9,pyridine_nitrogen,2-[2-(Methylamino)ethyl]pyridine
OCCNCCc1ccccn1,7.94,0:3,alcohol:amine_secondary,2-[2-(2-Hydroxyethylamino)ethyl]pyridine
OCCNCCc1ccccn1,3.15,0:3,alcohol:amine_secondary,2-[2-(2-Hydroxyethylamino)ethyl]pyridine
OCCN(CCO)Cc1ccccn1,6.92,0:6,alcohol:alcohol,Bis(2-hydroxyethyl)aminomethylpyridine
OCCN(CCO)Cc1ccccn1,1.2,0:6,alcohol:alcohol,Bis(2-hydroxyethyl)aminomethylpyridine
NCCNCc1ccccn1,9.46,10,pyridine_nitrogen,2-(2-Aminoethylaminomethyl)pyridine (N-2-Picolylethylenediamine)
NCCNCc1ccccn1,5.91,10,pyridine_nitrogen,2-(2-Aminoethylaminomethyl)pyridine (N-2-Picolylethylenediamine)
NCCNCc1ccccn1,2.73,10,pyridine_nitrogen,2-(2-Aminoethylaminomethyl)pyridine (N-2-Picolylethylenediamine)
CN(C)c1cccnc1,6.52,7,pyridine_nitrogen,3-(Dimethylamino)pyridine
CN(C)c1ccncc1,9.55,6,pyridine_nitrogen,4-(Dimethylamino)pyridine
CN(C)c1ccncc1,1.0,6,pyridine_nitrogen,4-(Dimethylamino)pyridine
CN(C)c1ccc(cc1)N=Nc2ccccn2,4.5,16,pyridine_nitrogen,2-[4-(Dimethylamino)phenylazo]pyridine
CN(C)c1ccc(cc1)N=Nc2ccccn2,2.0,16,pyridine_nitrogen,2-[4-(Dimethylamino)phenylazo]pyridine
c1ccnnc1,2.48,4,pyridine_nitrogen,"1,2-Diazine (Pyridazine)"
Cc1cccnn1,3.36,7,ring_nitrogen,"3-Methyl-1,2-diazine (3-Methylpyridazine)"
NNc1ccc(nn1)c2ccccc2,5.46,9,ring_nitrogen,"3-Hydrazino-6-phenyl-1,2-diazine"
COc1ccccc1c2ccc(NN)nn2,5.4,20,ring_nitrogen,"3-Hydrazino-6-(2-methoxyphenyl)-1,2-diazine"
COc1cccc(c1)c2ccc(NN)nn2,5.45,22,ring_nitrogen,"3-Hydrazino-6-(3-methoxyphenyl)-1,2-diazine"
COc1ccc(cc1)c2ccc(NN)nn2,5.57,22,ring_nitrogen,"3-Hydrazino-6-(4-methoxyphenyl)-1,2-diazine"
CC(C)(C)NCC(O)COc1ccccc1c2ccc(NN)nn2,9.24,21:4,amine_primary:amine_secondary,"3-Hydrazino-6{2-[3-(1,1-dimethylethylamino)-2-hydroxypropoxy]phenyl}-1,2-diazine (Prizidilol)"
CC(C)(C)NCC(O)COc1ccccc1c2ccc(NN)nn2,5.15,21:4,amine_primary:amine_secondary,"3-Hydrazino-6{2-[3-(1,1-dimethylethylamino)-2-hydroxypropoxy]phenyl}-1,2-diazine (Prizidilol)"
NNc1nncc2ccccc12,6.86,0,amine_primary,"3-Hydrazinobenzo[d]-1,2-diazine (Hydralazine)"
c1cnccn1,0.97,6,heterocyclic_nitrogen,"1,4-Diazine (Pyrazine)"
c1ccc2ncccc2c1,4.97,5,pyridine_nitrogen,Benzo[b]pyridine (Quinoline)
c1ccc2ncccc2c1,4.81,5,pyridine_nitrogen,Benzo[b]pyridine (Quinoline)
Oc1cccc2cccnc12,9.65,0:9,phenol:pyridine_nitrogen,8-Hydroxyquinoline (8-Quinolinol)(Oxine)
Oc1cccc2cccnc12,9.58,0:9,phenol:pyridine_nitrogen,8-Hydroxyquinoline (8-Quinolinol)(Oxine)
Oc1cccc2cccnc12,9.62,0:9,phenol:pyridine_nitrogen,8-Hydroxyquinoline (8-Quinolinol)(Oxine)
Oc1cccc2cccnc12,9.74,0:9,phenol:pyridine_nitrogen,8-Hydroxyquinoline (8-Quinolinol)(Oxine)
Oc1cccc2cccnc12,10.0,0:9,phenol:pyridine_nitrogen,8-Hydroxyquinoline (8-Quinolinol)(Oxine)
Oc1cccc2cccnc12,9.82,0:9,phenol:pyridine_nitrogen,8-Hydroxyquinoline (8-Quinolinol)(Oxine)
Oc1cccc2cccnc12,4.97,0:9,phenol:pyridine_nitrogen,8-Hydroxyquinoline (8-Quinolinol)(Oxine)
Oc1cccc2cccnc12,5.02,0:9,phenol:pyridine_nitrogen,8-Hydroxyquinoline (8-Quinolinol)(Oxine)
Oc1cccc2cccnc12,5.1,0:9,phenol:pyridine_nitrogen,8-Hydroxyquinoline (8-Quinolinol)(Oxine)
Oc1cccc2cccnc12,5.26,0:9,phenol:pyridine_nitrogen,8-Hydroxyquinoline (8-Quinolinol)(Oxine)
Oc1cccc2cccnc12,5.4,0:9,phenol:pyridine_nitrogen,8-Hydroxyquinoline (8-Quinolinol)(Oxine)
Oc1cccc2cccnc12,5.82,0:9,phenol:pyridine_nitrogen,8-Hydroxyquinoline (8-Quinolinol)(Oxine)
Oc1cccc2cccnc12,4.94,0:9,phenol:pyridine_nitrogen,8-Hydroxyquinoline (8-Quinolinol)(Oxine)
Cc1ccc2cccc(O)c2n1,10.04,16,ring_nitrogen,8-Hydroxy-2-methylquinoline
Cc1ccc2cccc(O)c2n1,9.96,16,ring_nitrogen,8-Hydroxy-2-methylquinoline
Cc1ccc2cccc(O)c2n1,9.94,16,ring_nitrogen,8-Hydroxy-2-methylquinoline
Cc1ccc2cccc(O)c2n1,9.89,16,ring_nitrogen,8-Hydroxy-2-methylquinoline
Cc1ccc2cccc(O)c2n1,10.16,16,ring_nitrogen,8-Hydroxy-2-methylquinoline
Cc1ccc2cccc(O)c2n1,5.65,16,ring_nitrogen,8-Hydroxy-2-methylquinoline
Cc1ccc2cccc(O)c2n1,5.7,16,ring_nitrogen,8-Hydroxy-2-methylquinoline
Cc1ccc2cccc(O)c2n1,5.87,16,ring_nitrogen,8-Hydroxy-2-methylquinoline
Cc1ccc2cccc(O)c2n1,5.98,16,ring_nitrogen,8-Hydroxy-2-methylquinoline
Cc1ccc2cccc(O)c2n1,5.61,16,ring_nitrogen,8-Hydroxy-2-methylquinoline
Oc1c(Br)cc(Br)c2cccnc12,7.3,0:10,phenol:pyridine_nitrogen,"5,7-Dibromo-8-hydroxyquinoline"
Oc1c(Br)cc(Br)c2cccnc12,2.6,0:10,phenol:pyridine_nitrogen,"5,7-Dibromo-8-hydroxyquinoline"
Oc1c(I)cc(I)c2cccnc12,8.0,0:10,phenol:pyridine_nitrogen,"5,7-Diiodo-8-hydroxyquinoline"
Oc1c(I)cc(I)c2cccnc12,2.7,0:10,phenol:pyridine_nitrogen,"5,7-Diiodo-8-hydroxyquinoline"
Oc1ccc(c2cccnc12)[N+]([O-])=O,6.36,9,pyridine_nitrogen,8-Hydroxy-5-nitroquinoline
Oc1ccc(c2cccnc12)[N+]([O-])=O,2.51,9,pyridine_nitrogen,8-Hydroxy-5-nitroquinoline
Oc1ccc(c2cccnc12)[S](O)(=O)=O,8.37,0:12,phenol:alcohol,8-Hydroxyquinoline-5-sulfonic acid (Sulfoxine)
Oc1ccc(c2cccnc12)[S](O)(=O)=O,8.18,0:12,phenol:alcohol,8-Hydroxyquinoline-5-sulfonic acid (Sulfoxine)
Oc1ccc(c2cccnc12)[S](O)(=O)=O,8.15,0:12,phenol:alcohol,8-Hydroxyquinoline-5-sulfonic acid (Sulfoxine)
Oc1ccc(c2cccnc12)[S](O)(=O)=O,8.16,0:12,phenol:alcohol,8-Hydroxyquinoline-5-sulfonic acid (Sulfoxine)
Oc1ccc(c2cccnc12)[S](O)(=O)=O,8.78,0:12,phenol:alcohol,8-Hydroxyquinoline-5-sulfonic acid (Sulfoxine)
Oc1ccc(c2cccnc12)[S](O)(=O)=O,3.9,0:12,phenol:alcohol,8-Hydroxyquinoline-5-sulfonic acid (Sulfoxine)
Oc1ccc(c2cccnc12)[S](O)(=O)=O,3.86,0:12,phenol:alcohol,8-Hydroxyquinoline-5-sulfonic acid (Sulfoxine)
Oc1ccc(c2cccnc12)[S](O)(=O)=O,3.94,0:12,phenol:alcohol,8-Hydroxyquinoline-5-sulfonic acid (Sulfoxine)
Oc1ccc(c2cccnc12)[S](O)(=O)=O,4.15,0:12,phenol:alcohol,8-Hydroxyquinoline-5-sulfonic acid (Sulfoxine)
Oc1ccc(c2cccnc12)[S](O)(=O)=O,4.1,0:12,phenol:alcohol,8-Hydroxyquinoline-5-sulfonic acid (Sulfoxine)
Cc1ccc2c(ccc(O)c2n1)[S](O)(=O)=O,8.72,9:13,phenol:alcohol,8-Hydroxy-2-methylquinoline-5-sulfonic acid
Cc1ccc2c(ccc(O)c2n1)[S](O)(=O)=O,4.63,9:13,phenol:alcohol,8-Hydroxy-2-methylquinoline-5-sulfonic acid
Oc1c(cc(c2cccnc12)[S](O)(=O)=O)N=O,5.52,0:12,phenol:alcohol,8-Hydroxy-7-nitrosoquinoline-5-sulfonic acid
Oc1c(cc(c2cccnc12)[S](O)(=O)=O)N=O,1.81,0:12,phenol:alcohol,8-Hydroxy-7-nitrosoquinoline-5-sulfonic acid
Oc1c(cc(c2cccnc12)[S](O)(=O)=O)[N+]([O-])=O,5.34,0:12,phenol:alcohol,8-Hydroxy-7-nitroquinoline-5-sulfonic acid
Oc1c(cc(c2cccnc12)[S](O)(=O)=O)[N+]([O-])=O,5.18,0:12,phenol:alcohol,8-Hydroxy-7-nitroquinoline-5-sulfonic acid
Oc1c(cc(c2cccnc12)[S](O)(=O)=O)[N+]([O-])=O,5.16,0:12,phenol:alcohol,8-Hydroxy-7-nitroquinoline-5-sulfonic acid
Oc1c(cc(c2cccnc12)[S](O)(=O)=O)[N+]([O-])=O,5.28,0:12,phenol:alcohol,8-Hydroxy-7-nitroquinoline-5-sulfonic acid
Oc1c(cc(c2cccnc12)[S](O)(=O)=O)[N+]([O-])=O,5.75,0:12,phenol:alcohol,8-Hydroxy-7-nitroquinoline-5-sulfonic acid
Oc1c(cc(c2cccnc12)[S](O)(=O)=O)[N+]([O-])=O,1.72,0:12,phenol:alcohol,8-Hydroxy-7-nitroquinoline-5-sulfonic acid
Oc1c(cc(c2cccnc12)[S](O)(=O)=O)[N+]([O-])=O,1.73,0:12,phenol:alcohol,8-Hydroxy-7-nitroquinoline-5-sulfonic acid
Oc1c(cc(c2cccnc12)[S](O)(=O)=O)[N+]([O-])=O,1.76,0:12,phenol:alcohol,8-Hydroxy-7-nitroquinoline-5-sulfonic acid
Oc1c(cc(c2cccnc12)[S](O)(=O)=O)[N+]([O-])=O,1.9,0:12,phenol:alcohol,8-Hydroxy-7-nitroquinoline-5-sulfonic acid
Oc1c(cc(c2cccnc12)[S](O)(=O)=O)[N+]([O-])=O,1.95,0:12,phenol:alcohol,8-Hydroxy-7-nitroquinoline-5-sulfonic acid
[Na+].[Na+].[O-][S](=O)(=O)c1ccc(N\N=C\2C=C(c3cccnc3C2=O)[S]([O-])(=O)=O)c4ccccc14,6.86,3:23:50:57,sulfonic_acid:sulfonic_acid:pyridine_nitrogen:sulfonic_acid,8-Hydroxy-7-(4-sulfo-1-naphthylazo)quinoline-5-sulfonic acid (SNAZOXS)
[Na+].[Na+].[O-][S](=O)(=O)c1ccc(N\N=C\2C=C(c3cccnc3C2=O)[S]([O-])(=O)=O)c4ccccc14,2.88,3:23:50:57,sulfonic_acid:sulfonic_acid:pyridine_nitrogen:sulfonic_acid,8-Hydroxy-7-(4-sulfo-1-naphthylazo)quinoline-5-sulfonic acid (SNAZOXS)
[Na+].[Na+].[O-][S](=O)(=O)c1ccc(N\N=C\2C=C(c3cccnc3C2=O)[S]([O-])(=O)=O)c4ccccc14,0.0,3:23:50:57,sulfonic_acid:sulfonic_acid:pyridine_nitrogen:sulfonic_acid,8-Hydroxy-7-(4-sulfo-1-naphthylazo)quinoline-5-sulfonic acid (SNAZOXS)
OC(=O)c1ccccc1N=Nc2cc(c3cccnc3c2O)[S](O)(=O)=O,9.02,0:21:23,carboxylic_acid:phenol:alcohol,8-Hydroxy-7-(2-carboxyphenylazo)quinoline-5-sulfonic acid
OC(=O)c1ccccc1N=Nc2cc(c3cccnc3c2O)[S](O)(=O)=O,3.63,0:21:23,carboxylic_acid:phenol:alcohol,8-Hydroxy-7-(2-carboxyphenylazo)quinoline-5-sulfonic acid
OC(=O)c1ccccc1N=Nc2cc(c3cccnc3c2O)[S](O)(=O)=O,3.34,0:21:23,carboxylic_acid:phenol:alcohol,8-Hydroxy-7-(2-carboxyphenylazo)quinoline-5-sulfonic acid
Oc1cc(cc2cc(cc(N=Nc3cc(c4cccnc4c3O)[S](O)(=O)=O)c12)[S](O)(=O)=O)[S](O)(=O)=O,11.46,0:22:24,phenol:phenol:alcohol,"8-Hydroxy-7-(8-hydroxy-3,6-disulfo-1-naphthylazo)quinoline-5-sulfonic acid"
Oc1cc(cc2cc(cc(N=Nc3cc(c4cccnc4c3O)[S](O)(=O)=O)c12)[S](O)(=O)=O)[S](O)(=O)=O,8.33,0:22:24,phenol:phenol:alcohol,"8-Hydroxy-7-(8-hydroxy-3,6-disulfo-1-naphthylazo)quinoline-5-sulfonic acid"
Oc1cc(cc2cc(cc(N=Nc3cc(c4cccnc4c3O)[S](O)(=O)=O)c12)[S](O)(=O)=O)[S](O)(=O)=O,3.81,0:22:24,phenol:phenol:alcohol,"8-Hydroxy-7-(8-hydroxy-3,6-disulfo-1-naphthylazo)quinoline-5-sulfonic acid"
COC(=O)c1ccc2cccc(O)c2n1,9.14,22,ring_nitrogen,8-Hydroxyquinoline-2-carboxylic acid methyl ester
COC(=O)c1ccc2cccc(O)c2n1,9.36,22,ring_nitrogen,8-Hydroxyquinoline-2-carboxylic acid methyl ester
Sc1cccc2cccnc12,8.25,9,pyridine_nitrogen,8-Mercaptoquinoline (Quinoline-8-thiol)
Sc1cccc2cccnc12,8.3,9,pyridine_nitrogen,8-Mercaptoquinoline (Quinoline-8-thiol)
Sc1cccc2cccnc12,8.17,9,pyridine_nitrogen,8-Mercaptoquinoline (Quinoline-8-thiol)
Sc1cccc2cccnc12,8.15,9,pyridine_nitrogen,8-Mercaptoquinoline (Quinoline-8-thiol)
Sc1cccc2cccnc12,8.36,9,pyridine_nitrogen,8-Mercaptoquinoline (Quinoline-8-thiol)
Sc1cccc2cccnc12,8.49,9,pyridine_nitrogen,8-Mercaptoquinoline (Quinoline-8-thiol)
Sc1cccc2cccnc12,2.01,9,pyridine_nitrogen,8-Mercaptoquinoline (Quinoline-8-thiol)
Sc1cccc2cccnc12,2.02,9,pyridine_nitrogen,8-Mercaptoquinoline (Quinoline-8-thiol)
Sc1cccc2cccnc12,2.09,9,pyridine_nitrogen,8-Mercaptoquinoline (Quinoline-8-thiol)
Sc1cccc2cccnc12,2.18,9,pyridine_nitrogen,8-Mercaptoquinoline (Quinoline-8-thiol)
Cc1ccc2cccc(S)c2n1,8.99,16,ring_nitrogen,8-Mercapto-2-methylquinoline
Cc1ccc2cccc(S)c2n1,2.22,16,ring_nitrogen,8-Mercapto-2-methylquinoline
Sc1cccc2ccc(nc12)c3ccccc3,7.89,12,pyridine_nitrogen,8-Mercapto-2-phenylquinoline ()
Sc1cccc2ccc(nc12)c3ccccc3,1.3,12,pyridine_nitrogen,8-Mercapto-2-phenylquinoline ()
Sc1cccc2c(ccnc12)c3ccccc3,8.38,12,pyridine_nitrogen,8-Mercapto-4-phenylquinoline ()
Sc1cccc2c(ccnc12)c3ccccc3,2.0,12,pyridine_nitrogen,8-Mercapto-4-phenylquinoline ()
Sc1ccc(c2ccccc2)c3cccnc13,8.3,15,pyridine_nitrogen,8-Mercapto-5-phenylquinoline
Sc1ccc(c2ccccc2)c3cccnc13,1.9,15,pyridine_nitrogen,8-Mercapto-5-phenylquinoline
Sc1cc(cc2cccnc12)c3ccccc3,8.08,9,pyridine_nitrogen,8-Mercapto-6-phenylquinoline
Sc1cc(cc2cccnc12)c3ccccc3,1.9,9,pyridine_nitrogen,8-Mercapto-6-phenylquinoline
Sc1ccc(S)c2ncccc12,9.3,11,pyridine_nitrogen,"5,8-Dimercaptoquinoline ()"
Sc1ccc(S)c2ncccc12,4.53,11,pyridine_nitrogen,"5,8-Dimercaptoquinoline ()"
Sc1ccc(S)c2ncccc12,1.6,11,pyridine_nitrogen,"5,8-Dimercaptoquinoline ()"
CSc1cccc2cccnc12,3.42,10,pyridine_nitrogen,8-(Methylthio)quinoline
[SeH]c1cccc2cccnc12,8.64,9,pyridine_nitrogen,Quinoline-8-selenol
[SeH]c1cccc2cccnc12,8.18,9,pyridine_nitrogen,Quinoline-8-selenol
C[Se]c1cccc2cccnc12,3.15,10,pyridine_nitrogen,8-(Methylseleno)quinoline
C[Se]c1cccc2cccnc12,3.35,10,pyridine_nitrogen,8-(Methylseleno)quinoline
Nc1cccc2cccnc12,3.98,9,pyridine_nitrogen,8-Aminoquinoline
Nc1cccc2cccnc12,4.04,9,pyridine_nitrogen,8-Aminoquinoline
Nc1cccc2cccnc12,3.95,9,pyridine_nitrogen,8-Aminoquinoline
c1ccc(nc1)c2ccccn2,4.41,4:11,pyridine_nitrogen:pyridine_nitrogen,"2,2'-Bipyridyl"
c1ccc(nc1)c2ccccn2,4.53,4:11,pyridine_nitrogen:pyridine_nitrogen,"2,2'-Bipyridyl"
c1ccc(nc1)c2ccccn2,4.66,4:11,pyridine_nitrogen:pyridine_nitrogen,"2,2'-Bipyridyl"
c1ccc(nc1)c2ccccn2,4.95,4:11,pyridine_nitrogen:pyridine_nitrogen,"2,2'-Bipyridyl"
c1ccc(nc1)c2ccccn2,5.32,4:11,pyridine_nitrogen:pyridine_nitrogen,"2,2'-Bipyridyl"
c1ccc(nc1)c2ccccn2,4.34,4:11,pyridine_nitrogen:pyridine_nitrogen,"2,2'-Bipyridyl"
c1ccc(nc1)c2ccccn2,1.3,4:11,pyridine_nitrogen:pyridine_nitrogen,"2,2'-Bipyridyl"
c1ccc(nc1)c2cccnc2,4.42,4,pyridine_nitrogen,"2,3'-Bipyridyl"
c1ccc(nc1)c2ccncc2,4.77,4,pyridine_nitrogen,"2,4'-Bipyridyl"
c1cncc(c1)c2cccnc2,4.6,2,pyridine_nitrogen,"3,3'-Bipyridyl"
c1cncc(c1)c2ccncc2,4.85,2,pyridine_nitrogen,"3,4'-Bipyridyl"
c1cc(ccn1)c2ccncc2,4.67,7,heterocyclic_nitrogen,"4,4'-Bipyridyl"
Cc1ccnc(c1)c2cc(C)ccn2,5.34,20,heterocyclic_nitrogen,"4,4'-Dimethyl-2,2'-bipyridyl"
C(c1ccccn1)c2ccccn2,5.18,6:12,pyridine_nitrogen:pyridine_nitrogen,Methylenedi-2-pyridine (Di-2-pyridylmethane)
C(c1ccccn1)c2ccccn2,2.69,6:12,pyridine_nitrogen:pyridine_nitrogen,Methylenedi-2-pyridine (Di-2-pyridylmethane)
C(Cc1ccccn1)c2ccccn2,5.8,7:13,pyridine_nitrogen:pyridine_nitrogen,"Ethylenedi-2-pyridine (1,2-Di-2-pyridylethane)"
C(Cc1ccccn1)c2ccccn2,3.99,7:13,pyridine_nitrogen:pyridine_nitrogen,"Ethylenedi-2-pyridine (1,2-Di-2-pyridylethane)"
C(Cc1ccccn1)Cc2ccccn2,6.15,7:14,pyridine_nitrogen:pyridine_nitrogen,"Trimethylenedi-2-pyridine (1,3-Di-2-pyridylpropane)"
C(Cc1ccccn1)Cc2ccccn2,4.8,7:14,pyridine_nitrogen:pyridine_nitrogen,"Trimethylenedi-2-pyridine (1,3-Di-2-pyridylpropane)"
C(CCc1ccccn1)Cc2ccccn2,6.25,8:15,pyridine_nitrogen:pyridine_nitrogen,"Tetramethylenedi-2-pyridine (1,4-Di-2-pyridylbutane)"
C(CCc1ccccn1)Cc2ccccn2,5.27,8:15,pyridine_nitrogen:pyridine_nitrogen,"Tetramethylenedi-2-pyridine (1,4-Di-2-pyridylbutane)"
C(CCc1ccccn1)CCc2ccccn2,6.33,8:16,pyridine_nitrogen:pyridine_nitrogen,"Pentamethylenedi-2-pyridine (1,5-Di-2-pyridylpentane)"
C(CCc1ccccn1)CCc2ccccn2,5.45,8:16,pyridine_nitrogen:pyridine_nitrogen,"Pentamethylenedi-2-pyridine (1,5-Di-2-pyridylpentane)"
C(CCCc1ccccn1)CCc2ccccn2,6.38,9:17,pyridine_nitrogen:pyridine_nitrogen,"Hexamethylenedi-2-pyridine (1,6-Di-2-pyridylhexane)"
C(CCCc1ccccn1)CCc2ccccn2,5.61,9:17,pyridine_nitrogen:pyridine_nitrogen,"Hexamethylenedi-2-pyridine (1,6-Di-2-pyridylhexane)"
c1ccc(C=Cc2ccccn2)nc1,4.95,11:12,pyridine_nitrogen:pyridine_nitrogen,"trans-Vinylenedi-2-pyridine (1,2-Di-2-pyridylethene)"
c1ccc(C=Cc2ccccn2)nc1,2.81,11:12,pyridine_nitrogen:pyridine_nitrogen,"trans-Vinylenedi-2-pyridine (1,2-Di-2-pyridylethene)"
c1cc(ccn1)C=Cc2ccncc2,5.65,5:11,pyridine_nitrogen:pyridine_nitrogen,"trans-Vinylenedi-4-pyridine (1,2-Di-4-pyridylethene)"
c1cc(ccn1)C=Cc2ccncc2,4.41,5:11,pyridine_nitrogen:pyridine_nitrogen,"trans-Vinylenedi-4-pyridine (1,2-Di-4-pyridylethene)"
NCc1cccc(n1)c2cccc(CN)n2,9.11,9:22,ring_nitrogen:ring_nitrogen,"6,6'-Bis(aminomethyl)-2,2'-bipyridyl"
NCc1cccc(n1)c2cccc(CN)n2,8.39,9:22,ring_nitrogen:ring_nitrogen,"6,6'-Bis(aminomethyl)-2,2'-bipyridyl"
NCc1cccc(n1)c2cccc(CN)n2,1.2,9:22,ring_nitrogen:ring_nitrogen,"6,6'-Bis(aminomethyl)-2,2'-bipyridyl"
N(c1ccccn1)c2ccccn2,7.03,0,amine_secondary,Iminodi-2-pyridine (Di-2-pyridylamine)
N(c1ccccn1)c2ccccn2,7.14,0,amine_secondary,Iminodi-2-pyridine (Di-2-pyridylamine)
c1cnc2c(c1)ccc3ncccc23,4.92,2:13,pyridine_nitrogen:pyridine_nitrogen,"1,10-Phenanthroline (Dipyridino[a,c]benzene)"
c1cnc2c(c1)ccc3ncccc23,5.03,2:13,pyridine_nitrogen:pyridine_nitrogen,"1,10-Phenanthroline (Dipyridino[a,c]benzene)"
c1cnc2c(c1)ccc3ncccc23,5.13,2:13,pyridine_nitrogen:pyridine_nitrogen,"1,10-Phenanthroline (Dipyridino[a,c]benzene)"
c1cnc2c(c1)ccc3ncccc23,5.82,2:13,pyridine_nitrogen:pyridine_nitrogen,"1,10-Phenanthroline (Dipyridino[a,c]benzene)"
c1cnc2c(c1)ccc3ncccc23,4.91,2:13,pyridine_nitrogen:pyridine_nitrogen,"1,10-Phenanthroline (Dipyridino[a,c]benzene)"
c1cnc2c(c1)ccc3ncccc23,1.8,2:13,pyridine_nitrogen:pyridine_nitrogen,"1,10-Phenanthroline (Dipyridino[a,c]benzene)"
Cc1ccc2ccc3cccnc3c2n1,5.31,19,ring_nitrogen,"2-Methyl-1,10-phenanthroline"
Cc1ccc2ccc3cccnc3c2n1,5.3,19,ring_nitrogen,"2-Methyl-1,10-phenanthroline"
Cc1cc2cccnc2c3ncccc13,5.27,7,pyridine_nitrogen,"5-Methyl-1,10-phenanthroline"
Cc1cc2cccnc2c3ncccc13,5.14,7,pyridine_nitrogen,"5-Methyl-1,10-phenanthroline"
Cc1ccc2ccc3ccc(C)nc3c2n1,5.83,22,ring_nitrogen,"2,9-Dimethyl-1,10-phenanthroline"
Cc1ccc2ccc3ccc(C)nc3c2n1,5.88,22,ring_nitrogen,"2,9-Dimethyl-1,10-phenanthroline"
Cc1ccc2ccc3ccc(C)nc3c2n1,5.77,22,ring_nitrogen,"2,9-Dimethyl-1,10-phenanthroline"
Cc1ccnc2c1ccc3c(C)ccnc23,5.95,4,pyridine_nitrogen,"4,7-Dimethyl-1,10-phenanthroline"
Cc1c(C)c2cccnc2c3ncccc13,5.6,8,pyridine_nitrogen,"5,6-Dimethyl-1,10-phenanthroline"
Cc1c(C)c2cccnc2c3ncccc13,5.45,8,pyridine_nitrogen,"5,6-Dimethyl-1,10-phenanthroline"
Cc1cnc2c(c1)c(C)c(C)c3cc(C)cnc23,5.8,2,pyridine_nitrogen,"3,5,6,8-Tetramethyl-1,10-phenanthroline"
Brc1cc2cccnc2c3ncccc13,4.09,8,pyridine_nitrogen,"5-Bromo-1,10-phenanthroline"
[O-][N+](=O)c1cc2cccnc2c3ncccc13,3.22,12,pyridine_nitrogen,"5-Nitro-1,10-phenanthroline"
[O-][N+](=O)c1cc2cccnc2c3ncccc13,3.25,12,pyridine_nitrogen,"5-Nitro-1,10-phenanthroline"
c1cnc2c(c1)ccc3ncccc23,4.0,2:13,pyridine_nitrogen:pyridine_nitrogen,"1,7-Phenanthroline"
c1cnc2ccc3ncccc3c2c1,4.0,2,pyridine_nitrogen,"4,7-Phenanthroline"
c1ccc(nc1)c2nc(nc(n2)c3ccccn3)c4ccccn4,3.53,18:27,ring_nitrogen:heterocyclic_nitrogen,"2,4,6-Tri(2-pyridyl)-1,3,5-triazine"
c1ccc(nc1)c2nc(nc(n2)c3ccccn3)c4ccccn4,3.4,18:27,ring_nitrogen:heterocyclic_nitrogen,"2,4,6-Tri(2-pyridyl)-1,3,5-triazine"
c1ccc(nc1)c2nc(nc(n2)c3ccccn3)c4ccccn4,2.73,18:27,ring_nitrogen:heterocyclic_nitrogen,"2,4,6-Tri(2-pyridyl)-1,3,5-triazine"