SMILES,pKa,Dissociable_Atoms,Functional_Group,Name
CNCCNCCNCCNC,4.08,1:4:7:10,amine_secondary:amine_secondary:amine_secondary:amine_secondary,"2,5,8,11-Tetraazadodecane"
CNCCCNCCCNCCNC,10.3,1:5:9:12,amine_secondary:amine_secondary:amine_secondary:amine_secondary,"2,5,9,13-Tetraazatetradecane"
CNCCCNCCCNCCNC,9.57,1:5:9:12,amine_secondary:amine_secondary:amine_secondary:amine_secondary,"2,5,9,13-Tetraazatetradecane"
CNCCCNCCCNCCNC,7.18,1:5:9:12,amine_secondary:amine_secondary:amine_secondary:amine_secondary,"2,5,9,13-Tetraazatetradecane"
CNCCCNCCCNCCNC,5.66,1:5:9:12,amine_secondary:amine_secondary:amine_secondary:amine_secondary,"2,5,9,13-Tetraazatetradecane"
CNCCCNCCNCCCNC,10.84,1:5:8:12,amine_secondary:amine_secondary:amine_secondary:amine_secondary,"2,6,9,13-Tetraazatetradecane"
CNCCCNCCNCCCNC,10.12,1:5:8:12,amine_secondary:amine_secondary:amine_secondary:amine_secondary,"2,6,9,13-Tetraazatetradecane"
CNCCCNCCNCCCNC,8.44,1:5:8:12,amine_secondary:amine_secondary:amine_secondary:amine_secondary,"2,6,9,13-Tetraazatetradecane"
CNCCCNCCNCCCNC,5.69,1:5:8:12,amine_secondary:amine_secondary:amine_secondary:amine_secondary,"2,6,9,13-Tetraazatetradecane"
CNCCCNCCCNCCCNC,10.95,1:5:9:13,amine_secondary:amine_secondary:amine_secondary:amine_secondary,"2,6,10,14-Tetraazapentadecane"
CNCCCNCCCNCCCNC,10.23,1:5:9:13,amine_secondary:amine_secondary:amine_secondary:amine_secondary,"2,6,10,14-Tetraazapentadecane"
CNCCCNCCCNCCCNC,8.89,1:5:9:13,amine_secondary:amine_secondary:amine_secondary:amine_secondary,"2,6,10,14-Tetraazapentadecane"
CNCCCNCCCNCCCNC,7.43,1:5:9:13,amine_secondary:amine_secondary:amine_secondary:amine_secondary,"2,6,10,14-Tetraazapentadecane"
NCCNCC(F)(F)CNCCN,9.86,0:3:9:12,amine_primary:amine_secondary:amine_secondary:amine_primary,"6,6-Difluoro-1,4,8,11-tetraazaundecane"
NCCNCC(F)(F)CNCCN,9.11,0:3:9:12,amine_primary:amine_secondary:amine_secondary:amine_primary,"6,6-Difluoro-1,4,8,11-tetraazaundecane"
NCCNCC(F)(F)CNCCN,4.58,0:3:9:12,amine_primary:amine_secondary:amine_secondary:amine_primary,"6,6-Difluoro-1,4,8,11-tetraazaundecane"
NCCNCC(F)(F)CNCCN,2.42,0:3:9:12,amine_primary:amine_secondary:amine_secondary:amine_primary,"6,6-Difluoro-1,4,8,11-tetraazaundecane"
NCCNCCOCCNCCN,9.81,0:3:9:12,amine_primary:amine_secondary:amine_secondary:amine_primary,"7-Oxa-1,4,10,13-tetraazatridecane"
NCCNCCOCCNCCN,9.24,0:3:9:12,amine_primary:amine_secondary:amine_secondary:amine_primary,"7-Oxa-1,4,10,13-tetraazatridecane"
NCCNCCOCCNCCN,6.89,0:3:9:12,amine_primary:amine_secondary:amine_secondary:amine_primary,"7-Oxa-1,4,10,13-tetraazatridecane"
NCCNCCOCCNCCN,5.98,0:3:9:12,amine_primary:amine_secondary:amine_secondary:amine_primary,"7-Oxa-1,4,10,13-tetraazatridecane"
NCCNCCSCCNCCN,9.78,0:3:9:12,amine_primary:amine_secondary:amine_secondary:amine_primary,"7-Thia-1,4,10,13-tetraazatridecane"
NCCNCCSCCNCCN,9.1,0:3:9:12,amine_primary:amine_secondary:amine_secondary:amine_primary,"7-Thia-1,4,10,13-tetraazatridecane"
NCCNCCSCCNCCN,6.51,0:3:9:12,amine_primary:amine_secondary:amine_secondary:amine_primary,"7-Thia-1,4,10,13-tetraazatridecane"
NCCNCCSCCNCCN,5.64,0:3:9:12,amine_primary:amine_secondary:amine_secondary:amine_primary,"7-Thia-1,4,10,13-tetraazatridecane"
C1CNC1,11.29,2,amine_secondary,Trimethyleneimine (Azetidine)(Azacyclobutane)
C1CCNC1,11.3,3,amine_secondary,Tetramethyleneimine (Pyrrolidine)(Azacyclopentane)
C1CCNC1,11.48,3,amine_secondary,Tetramethyleneimine (Pyrrolidine)(Azacyclopentane)
C1CCNC1,11.807,3,amine_secondary,Tetramethyleneimine (Pyrrolidine)(Azacyclopentane)
C1CCNC1,11.305,3,amine_secondary,Tetramethyleneimine (Pyrrolidine)(Azacyclopentane)
C1CCNC1,10.845,3,amine_secondary,Tetramethyleneimine (Pyrrolidine)(Azacyclopentane)
CN1CCCC1,10.46,1,tertiary_amine,N-Methylpyrrolidine
NCCN1CCCC1,9.74,3,tertiary_amine,N-(2-Aminoethyl)pyrrolidine
NCCN1CCCC1,6.56,3,tertiary_amine,N-(2-Aminoethyl)pyrrolidine
C1CCNCC1,11.08,3,amine_secondary,Pentamethyleneimine (Piperidine)(Azacyclohexane)
C1CCNCC1,11.12,3,amine_secondary,Pentamethyleneimine (Piperidine)(Azacyclohexane)
C1CCNCC1,11.613,3,amine_secondary,Pentamethyleneimine (Piperidine)(Azacyclohexane)
C1CCNCC1,11.125,3,amine_secondary,Pentamethyleneimine (Piperidine)(Azacyclohexane)
C1CCNCC1,10.675,3,amine_secondary,Pentamethyleneimine (Piperidine)(Azacyclohexane)
CN1CCCCC1,10.02,1,tertiary_amine,N-Methylpiperidine
CN1CCCCC1,10.18,1,tertiary_amine,N-Methylpiperidine
CN1CCCCC1,10.08,1,tertiary_amine,N-Methylpiperidine
CCN1CCCCC1,10.61,2,tertiary_amine,N-Ethylpiperidine
CC1CCNCC1,11.08,4,amine_secondary,4-Methylpiperidine
C1CCCNCCC1,11.1,4,amine_secondary,Heptamethyleneimine (Azacyclooctane)
NCCN1CCCCC1,9.89,3,tertiary_amine,N-(2-Aminoethyl)piperidine
NCCN1CCCCC1,6.38,3,tertiary_amine,N-(2-Aminoethyl)piperidine
CN1CCC(S)CC1,10.35,1,tertiary_amine,4-Mercapto-N-methylpiperidine
CN1CCC(S)CC1,8.33,1,tertiary_amine,4-Mercapto-N-methylpiperidine
C1CN2CCC1CC2,11.15,1,tertiary_amine,1-Azabicyclo[2.2.2]octane (Quinuclidine)
C1CNCCN1,9.74,2:5,amine_secondary:amine_secondary,"1,4-Diazacyclohexane (Perhydro-1,4-diazine)(Piperazine)"
C1CNCCN1,9.86,2:5,amine_secondary:amine_secondary,"1,4-Diazacyclohexane (Perhydro-1,4-diazine)(Piperazine)"
C1CNCCN1,10.01,2:5,amine_secondary:amine_secondary,"1,4-Diazacyclohexane (Perhydro-1,4-diazine)(Piperazine)"
C1CNCCN1,10.126,2:5,amine_secondary:amine_secondary,"1,4-Diazacyclohexane (Perhydro-1,4-diazine)(Piperazine)"
C1CNCCN1,9.731,2:5,amine_secondary:amine_secondary,"1,4-Diazacyclohexane (Perhydro-1,4-diazine)(Piperazine)"
C1CNCCN1,9.367,2:5,amine_secondary:amine_secondary,"1,4-Diazacyclohexane (Perhydro-1,4-diazine)(Piperazine)"
C1CNCCN1,5.64,2:5,amine_secondary:amine_secondary,"1,4-Diazacyclohexane (Perhydro-1,4-diazine)(Piperazine)"
C1CNCCN1,5.8,2:5,amine_secondary:amine_secondary,"1,4-Diazacyclohexane (Perhydro-1,4-diazine)(Piperazine)"
C1CNCCN1,6.04,2:5,amine_secondary:amine_secondary,"1,4-Diazacyclohexane (Perhydro-1,4-diazine)(Piperazine)"
C1CNCCN1,5.614,2:5,amine_secondary:amine_secondary,"1,4-Diazacyclohexane (Perhydro-1,4-diazine)(Piperazine)"
C1CNCCN1,5.333,2:5,amine_secondary:amine_secondary,"1,4-Diazacyclohexane (Perhydro-1,4-diazine)(Piperazine)"
C1CNCCN1,5.066,2:5,amine_secondary:amine_secondary,"1,4-Diazacyclohexane (Perhydro-1,4-diazine)(Piperazine)"
CN1CCNCC1,8.98,1,tertiary_amine,N-Methylpiperazine
CN1CCNCC1,9.32,1,tertiary_amine,N-Methylpiperazine
CN1CCNCC1,4.83,1,tertiary_amine,N-Methylpiperazine
CN1CCNCC1,5.2,1,tertiary_amine,N-Methylpiperazine
CN1CCN(C)CC1,8.13,1,tertiary_amine,"N,N'-Dimethylpiperazine"
CN1CCN(C)CC1,8.54,1,tertiary_amine,"N,N'-Dimethylpiperazine"
CN1CCN(C)CC1,4.18,1,tertiary_amine,"N,N'-Dimethylpiperazine"
CN1CCN(C)CC1,4.63,1,tertiary_amine,"N,N'-Dimethylpiperazine"
CC1CNCCN1,9.49,3:6,amine_secondary:amine_secondary,2-Methylpiperazine
CC1CNCCN1,5.51,3:6,amine_secondary:amine_secondary,2-Methylpiperazine
C[C@H]1CN[C@@H](C)CN1,9.76,3:7,amine_secondary:amine_secondary,"cis-2,5-Dimethylpiperazine"
C[C@H]1CN[C@@H](C)CN1,5.32,3:7,amine_secondary:amine_secondary,"cis-2,5-Dimethylpiperazine"
C[C@H]1CN[C@H](C)CN1,9.58,3:7,amine_secondary:amine_secondary,"trans-2,5-Dimethylpiperazine"
C[C@H]1CN[C@H](C)CN1,5.37,3:7,amine_secondary:amine_secondary,"trans-2,5-Dimethylpiperazine"
CC1CNCC(C)N1,9.57,3:7,amine_secondary:amine_secondary,"2,6-Dimethylpiperazine"
CC1CNCC(C)N1,5.4,3:7,amine_secondary:amine_secondary,"2,6-Dimethylpiperazine"
C1CN(CCN1)CCNCCN2CCNCC2,9.52,3,tertiary_amine,Bis(2-piperazinylethyl)amine
C1CN(CCN1)CCNCCN2CCNCC2,8.78,3,tertiary_amine,Bis(2-piperazinylethyl)amine
C1CN(CCN1)CCNCCN2CCNCC2,8.06,3,tertiary_amine,Bis(2-piperazinylethyl)amine
C1CN(CCN1)CCNCCN2CCNCC2,2.14,3,tertiary_amine,Bis(2-piperazinylethyl)amine
CN(CCN1CCNCC1)CCN2CCNCC2,9.12,5,tertiary_amine,Bis(2-piperazinylethyl)methylamine
CN(CCN1CCNCC1)CCN2CCNCC2,8.65,5,tertiary_amine,Bis(2-piperazinylethyl)methylamine
CN(CCN1CCNCC1)CCN2CCNCC2,7.38,5,tertiary_amine,Bis(2-piperazinylethyl)methylamine
CN1CCN(CC1)CCN(C)CCN2CCN(C)CC2,8.16,1,tertiary_amine,Bis[2-(4-methylpiperazinyl)ethyl]methylamine
CN1CCN(CC1)CCN(C)CCN2CCN(C)CC2,7.75,1,tertiary_amine,Bis[2-(4-methylpiperazinyl)ethyl]methylamine
CN1CCN(CC1)CCN(C)CCN2CCN(C)CC2,6.97,1,tertiary_amine,Bis[2-(4-methylpiperazinyl)ethyl]methylamine
C1CN(CCN1)c2ccccc2,8.6,3,tertiary_amine,N-Phenylpiperazine
O[S](=O)(=O)CCN1CCN(CC1)CC[S](O)(=O)=O,6.93,14,tertiary_amine,"Piperazine-N,N'-bis(ethylenesulfonic acid) (PIPES)"
O[S](=O)(=O)CCN1CCN(CC1)CC[S](O)(=O)=O,7.241,14,tertiary_amine,"Piperazine-N,N'-bis(ethylenesulfonic acid) (PIPES)"
O[S](=O)(=O)CCN1CCN(CC1)CC[S](O)(=O)=O,7.141,14,tertiary_amine,"Piperazine-N,N'-bis(ethylenesulfonic acid) (PIPES)"
O[S](=O)(=O)CCN1CCN(CC1)CC[S](O)(=O)=O,7.034,14,tertiary_amine,"Piperazine-N,N'-bis(ethylenesulfonic acid) (PIPES)"
OCCN1CCN(CC1)CC[S](O)(=O)=O,7.49,3,tertiary_amine,N-(2-Hydroxyethyl)piperazine-N'-ethylenesulfonic acid (HEPES)
OCCN1CCN(CC1)CC[S](O)(=O)=O,7.749,3,tertiary_amine,N-(2-Hydroxyethyl)piperazine-N'-ethylenesulfonic acid (HEPES)
OCCN1CCN(CC1)CC[S](O)(=O)=O,7.564,3,tertiary_amine,N-(2-Hydroxyethyl)piperazine-N'-ethylenesulfonic acid (HEPES)
OCCN1CCN(CC1)CC[S](O)(=O)=O,7.393,3,tertiary_amine,N-(2-Hydroxyethyl)piperazine-N'-ethylenesulfonic acid (HEPES)
OCCN1CCN(CCC[S](O)(=O)=O)CC1,8.15,3,tertiary_amine,"N-(2-Hydroxyethyl)piperazine-N'-(1,3-propylenesulfonic acid) (HEPPS)"
OCCN1CCN(CCC[S](O)(=O)=O)CC1,7.957,3,tertiary_amine,"N-(2-Hydroxyethyl)piperazine-N'-(1,3-propylenesulfonic acid) (HEPPS)"
OCCN1CCN(CCC[S](O)(=O)=O)CC1,7.776,3,tertiary_amine,"N-(2-Hydroxyethyl)piperazine-N'-(1,3-propylenesulfonic acid) (HEPPS)"
NCCN1CCNCC1,9.55,0:6,amine_primary:amine_secondary,N-(2-Aminoethyl)piperazine
NCCN1CCNCC1,8.44,0:6,amine_primary:amine_secondary,N-(2-Aminoethyl)piperazine
NCCN1CCN(CCN)CC1,9.64,3,tertiary_amine,"N,N'-Bis(2-aminoethyl)piperazine"
NCCN1CCN(CCN)CC1,8.98,3,tertiary_amine,"N,N'-Bis(2-aminoethyl)piperazine"
NCCN1CCN(CCN)CC1,5.14,3,tertiary_amine,"N,N'-Bis(2-aminoethyl)piperazine"
NCCCN1CCN(CCCN)CC1,10.22,4,tertiary_amine,"N,N'-Bis(3-aminopropyl)piperazine"
NCCCN1CCN(CCCN)CC1,9.28,4,tertiary_amine,"N,N'-Bis(3-aminopropyl)piperazine"
NCCCN1CCN(CCCN)CC1,6.15,4,tertiary_amine,"N,N'-Bis(3-aminopropyl)piperazine"
C1CN2CCN1CC2,8.82,1:4,tertiary_amine:tertiary_amine,"1,4-Diazabicyclo[2.2.2]octane (Triethylenediamine)"
C1CN2CCN1CC2,2.97,1:4,tertiary_amine:tertiary_amine,"1,4-Diazabicyclo[2.2.2]octane (Triethylenediamine)"
C1CNCCNC1,10.26,2:5,amine_secondary:amine_secondary,"1,4-Diazacycloheptane (Perhydro-1,4-diazepine)(Homopiperazine)"
C1CNCCNC1,6.6,2:5,amine_secondary:amine_secondary,"1,4-Diazacycloheptane (Perhydro-1,4-diazepine)(Homopiperazine)"
NCCN1CCCNCC1,10.09,3,tertiary_amine,"N-(2-Aminoethyl)-1,4-diazacycloheptane"
NCCN1CCCNCC1,9.22,3,tertiary_amine,"N-(2-Aminoethyl)-1,4-diazacycloheptane"
NCCN1CCCNCC1,2.8,3,tertiary_amine,"N-(2-Aminoethyl)-1,4-diazacycloheptane"
NCCN1CCCN(CCN)CC1,9.7,3,tertiary_amine,"N,N'-Bis(2-Aminoethyl)-1,4-diazacycloheptane"
NCCN1CCCN(CCN)CC1,9.18,3,tertiary_amine,"N,N'-Bis(2-Aminoethyl)-1,4-diazacycloheptane"
NCCN1CCCN(CCN)CC1,6.19,3,tertiary_amine,"N,N'-Bis(2-Aminoethyl)-1,4-diazacycloheptane"
NCCCN1CCCN(CCCN)CC1,10.05,4,tertiary_amine,"N,N'-Bis(3-Aminopropyl)-1,4-diazacycloheptane"
NCCCN1CCCN(CCCN)CC1,9.81,4,tertiary_amine,"N,N'-Bis(3-Aminopropyl)-1,4-diazacycloheptane"
NCCCN1CCCN(CCCN)CC1,8.01,4,tertiary_amine,"N,N'-Bis(3-Aminopropyl)-1,4-diazacycloheptane"
NCCCN1CCCN(CCCN)CC1,4.84,4,tertiary_amine,"N,N'-Bis(3-Aminopropyl)-1,4-diazacycloheptane"
C1CNCCCNC1,10.65,2:6,amine_secondary:amine_secondary,"1,5-Diazacyclooctane"
C1CNCCCNC1,7.07,2:6,amine_secondary:amine_secondary,"1,5-Diazacyclooctane"
NCCN1CCCN(CCN)CCC1,10.78,3,tertiary_amine,"N,N'-Bis(2-aminoethyl)-1,5-diazacyclooctane"
NCCN1CCCN(CCN)CCC1,9.42,3,tertiary_amine,"N,N'-Bis(2-aminoethyl)-1,5-diazacyclooctane"
NCCN1CCCN(CCN)CCC1,6.03,3,tertiary_amine,"N,N'-Bis(2-aminoethyl)-1,5-diazacyclooctane"
C1CNCCNCCN1,10.44,2:5,amine_secondary:amine_secondary,"1,4,7-Triazacyclononane ([9]aneN3)"
C1CNCCNCCN1,10.79,2:5,amine_secondary:amine_secondary,"1,4,7-Triazacyclononane ([9]aneN3)"
C1CNCCNCCN1,6.81,2:5,amine_secondary:amine_secondary,"1,4,7-Triazacyclononane ([9]aneN3)"
C1CNCCNCCN1,7.09,2:5,amine_secondary:amine_secondary,"1,4,7-Triazacyclononane ([9]aneN3)"
NCCCN1CCCNCCCNCCC1,12.0,4,tertiary_amine,"1-(3-Aminopropyl)-1,5,9-triazacyclododecane"
NCCCN1CCCNCCCNCCC1,9.9,4,tertiary_amine,"1-(3-Aminopropyl)-1,5,9-triazacyclododecane"
NCCCN1CCCNCCCNCCC1,5.99,4,tertiary_amine,"1-(3-Aminopropyl)-1,5,9-triazacyclododecane"
NCCCN1CCCNCCCNCCC1,2.2,4,tertiary_amine,"1-(3-Aminopropyl)-1,5,9-triazacyclododecane"
C1CNCCCN(Cc2cc[nH]n2)NC1,11.87,2:11:13,amine_secondary:amine_secondary:amine_secondary,"1-(3-Pyrazolylmethyl)-1,5,9-triazacyclononane"
C1CNCCCN(Cc2cc[nH]n2)NC1,6.73,2:11:13,amine_secondary:amine_secondary:amine_secondary,"1-(3-Pyrazolylmethyl)-1,5,9-triazacyclononane"
C1CNCCCN(Cc2cc[nH]n2)NC1,1.86,2:11:13,amine_secondary:amine_secondary:amine_secondary,"1-(3-Pyrazolylmethyl)-1,5,9-triazacyclononane"
C1CNCCCN(Cc2c[nH]cn2)NC1,10.74,2:10:13,amine_secondary:amine_secondary:amine_secondary,"1-(4-Imidazolylmethyl)-1,5,9-triazacyclononane"
C1CNCCCN(Cc2c[nH]cn2)NC1,7.22,2:10:13,amine_secondary:amine_secondary:amine_secondary,"1-(4-Imidazolylmethyl)-1,5,9-triazacyclononane"
C1CNCCCN(Cc2c[nH]cn2)NC1,4.91,2:10:13,amine_secondary:amine_secondary:amine_secondary,"1-(4-Imidazolylmethyl)-1,5,9-triazacyclononane"
SCCN1CCN(CCS)CCN(CCS)CC1,13.4,3,tertiary_amine,"1,4,7-Tris(2-mercaptoethyl)-1,4,7-triazacyclononane"
SCCN1CCN(CCS)CCN(CCS)CC1,10.97,3,tertiary_amine,"1,4,7-Tris(2-mercaptoethyl)-1,4,7-triazacyclononane"
SCCN1CCN(CCS)CCN(CCS)CC1,9.45,3,tertiary_amine,"1,4,7-Tris(2-mercaptoethyl)-1,4,7-triazacyclononane"
SCCN1CCN(CCS)CCN(CCS)CC1,8.26,3,tertiary_amine,"1,4,7-Tris(2-mercaptoethyl)-1,4,7-triazacyclononane"
SCCN1CCN(CCS)CCN(CCS)CC1,2.5,3,tertiary_amine,"1,4,7-Tris(2-mercaptoethyl)-1,4,7-triazacyclononane"
Cc1ccc(O)c(CN2CCN(CCN(CC2)Cc3nc(C)ccc3O)Cc4nc(C)ccc4O)n1,12.1,54,ring_nitrogen,"1,4,7-Tris(3-hydroxy-6-methyl-2-pyridylmethyl)-1,4,7-triazacyclononane"
Cc1ccc(O)c(CN2CCN(CCN(CC2)Cc3nc(C)ccc3O)Cc4nc(C)ccc4O)n1,10.86,54,ring_nitrogen,"1,4,7-Tris(3-hydroxy-6-methyl-2-pyridylmethyl)-1,4,7-triazacyclononane"
Cc1ccc(O)c(CN2CCN(CCN(CC2)Cc3nc(C)ccc3O)Cc4nc(C)ccc4O)n1,9.73,54,ring_nitrogen,"1,4,7-Tris(3-hydroxy-6-methyl-2-pyridylmethyl)-1,4,7-triazacyclononane"
Cc1ccc(O)c(CN2CCN(CCN(CC2)Cc3nc(C)ccc3O)Cc4nc(C)ccc4O)n1,7.0,54,ring_nitrogen,"1,4,7-Tris(3-hydroxy-6-methyl-2-pyridylmethyl)-1,4,7-triazacyclononane"
Cc1ccc(O)c(CN2CCN(CCN(CC2)Cc3nc(C)ccc3O)Cc4nc(C)ccc4O)n1,5.35,54,ring_nitrogen,"1,4,7-Tris(3-hydroxy-6-methyl-2-pyridylmethyl)-1,4,7-triazacyclononane"
Cc1ccc(O)c(CN2CCN(CCN(CC2)Cc3nc(C)ccc3O)Cc4nc(C)ccc4O)n1,4.28,54,ring_nitrogen,"1,4,7-Tris(3-hydroxy-6-methyl-2-pyridylmethyl)-1,4,7-triazacyclononane"
C1CNCCCNC(CCNC1)c2c[nH]cn2,13.0,2:6:10:14,amine_secondary:amine_secondary:amine_secondary:amine_secondary,"2-(4-Imidazolyl)-1,5,9-triazacyclododecane"
C1CNCCCNC(CCNC1)c2c[nH]cn2,7.54,2:6:10:14,amine_secondary:amine_secondary:amine_secondary:amine_secondary,"2-(4-Imidazolyl)-1,5,9-triazacyclododecane"
C1CNCCCNC(CCNC1)c2c[nH]cn2,5.2,2:6:10:14,amine_secondary:amine_secondary:amine_secondary:amine_secondary,"2-(4-Imidazolyl)-1,5,9-triazacyclododecane"
C1CNCCCNC(CCNC1)c2c[nH]cn2,2.0,2:6:10:14,amine_secondary:amine_secondary:amine_secondary:amine_secondary,"2-(4-Imidazolyl)-1,5,9-triazacyclododecane"
C1N2CN3CN1CN(C2)C3,4.89,11,tertiary_amine,"1,3,5,7-Tetraazatricyclo[3.3.1.1(3,7)]decane (Hexamethylenetetramine)"
C1N2CN3CN1CN(C2)C3,5.05,11,tertiary_amine,"1,3,5,7-Tetraazatricyclo[3.3.1.1(3,7)]decane (Hexamethylenetetramine)"
CN1CCNCCN(C)CCNCC1,10.76,4:11,amine_secondary:amine_secondary,"1,7-Dimethyl-1,4,7,10-tetraazacyclododecane"
CN1CCNCCN(C)CCNCC1,9.41,4:11,amine_secondary:amine_secondary,"1,7-Dimethyl-1,4,7,10-tetraazacyclododecane"
CN1CCN(C)CCN(C)CCN(C)CC1,10.07,1,tertiary_amine,"1,4,7,10-Tetramethyl-1,4,7,10-tetraazacyclododecane"
CN1CCN(C)CCN(C)CCN(C)CC1,8.95,1,tertiary_amine,"1,4,7,10-Tetramethyl-1,4,7,10-tetraazacyclododecane"
CC1CC(C)NCCNCCNCCN1,11.4,5:8,amine_secondary:amine_secondary,"11,13-Dimethyl-1,4,7,10-tetraazacyclotridecane"
CC1CC(C)NCCNCCNCCN1,9.76,5:8,amine_secondary:amine_secondary,"11,13-Dimethyl-1,4,7,10-tetraazacyclotridecane"
CC1(C)CNCCNCCNCCNC1,11.4,4:7,amine_secondary:amine_secondary,"12,12-Dimethyl-1,4,7,10-tetraazacyclotridecane"
CC1(C)CNCCNCCNCCNC1,9.95,4:7,amine_secondary:amine_secondary,"12,12-Dimethyl-1,4,7,10-tetraazacyclotridecane"
CC1CC(C)(C)NCCNCCNCCN1,11.3,6:9,amine_secondary:amine_secondary,"11,11,13-Trimethyl-1,4,7,10-tetraazacyclotridecane"
CC1CC(C)(C)NCCNCCNCCN1,9.46,6:9,amine_secondary:amine_secondary,"11,11,13-Trimethyl-1,4,7,10-tetraazacyclotridecane"
CN1CCN(C)CCN(C)CC(C)(C)CN(C)CC1,11.4,1,tertiary_amine,"1,4,7,10,12,12-Hexamethyl-1,4,7,10-tetraazacyclotridecane"
CN1CCN(C)CCN(C)CC(C)(C)CN(C)CC1,7.95,1,tertiary_amine,"1,4,7,10,12,12-Hexamethyl-1,4,7,10-tetraazacyclotridecane"
C1CCNCCNCCNCCNC1,10.92,3:6:9:12,amine_secondary:amine_secondary:amine_secondary:amine_secondary,"1,4,7,10-Tetraazacyclotetradecane"
C1CCNCCNCCNCCNC1,10.45,3:6:9:12,amine_secondary:amine_secondary:amine_secondary:amine_secondary,"1,4,7,10-Tetraazacyclotetradecane"
C1CCNCCNCCNCCNC1,10.98,3:6:9:12,amine_secondary:amine_secondary:amine_secondary:amine_secondary,"1,4,7,10-Tetraazacyclotetradecane"
C1CCNCCNCCNCCNC1,9.4,3:6:9:12,amine_secondary:amine_secondary:amine_secondary:amine_secondary,"1,4,7,10-Tetraazacyclotetradecane"
C1CCNCCNCCNCCNC1,9.44,3:6:9:12,amine_secondary:amine_secondary:amine_secondary:amine_secondary,"1,4,7,10-Tetraazacyclotetradecane"
C1CCNCCNCCNCCNC1,9.75,3:6:9:12,amine_secondary:amine_secondary:amine_secondary:amine_secondary,"1,4,7,10-Tetraazacyclotetradecane"
C1CCNCCNCCNCCNC1,4.62,3:6:9:12,amine_secondary:amine_secondary:amine_secondary:amine_secondary,"1,4,7,10-Tetraazacyclotetradecane"
C1CCNCCNCCNCCNC1,4.01,3:6:9:12,amine_secondary:amine_secondary:amine_secondary:amine_secondary,"1,4,7,10-Tetraazacyclotetradecane"
C1CCNCCNCCNCCNC1,4.86,3:6:9:12,amine_secondary:amine_secondary:amine_secondary:amine_secondary,"1,4,7,10-Tetraazacyclotetradecane"
C1CCNCCNCCNCCNC1,1.9,3:6:9:12,amine_secondary:amine_secondary:amine_secondary:amine_secondary,"1,4,7,10-Tetraazacyclotetradecane"
C1CCNCCNCCNCCNC1,2.0,3:6:9:12,amine_secondary:amine_secondary:amine_secondary:amine_secondary,"1,4,7,10-Tetraazacyclotetradecane"
C1CCNCCNCCNCCNCC1,9.83,3:6:9:12,amine_secondary:amine_secondary:amine_secondary:amine_secondary,"1,4,7,10-Tetraazacyclopentadecane"
C1CCNCCNCCNCCNCC1,10.25,3:6:9:12,amine_secondary:amine_secondary:amine_secondary:amine_secondary,"1,4,7,10-Tetraazacyclopentadecane"
C1CCNCCNCCNCCNCC1,10.33,3:6:9:12,amine_secondary:amine_secondary:amine_secondary:amine_secondary,"1,4,7,10-Tetraazacyclopentadecane"
C1CCNCCNCCNCCNCC1,8.95,3:6:9:12,amine_secondary:amine_secondary:amine_secondary:amine_secondary,"1,4,7,10-Tetraazacyclopentadecane"
C1CCNCCNCCNCCNCC1,9.23,3:6:9:12,amine_secondary:amine_secondary:amine_secondary:amine_secondary,"1,4,7,10-Tetraazacyclopentadecane"
C1CCNCCNCCNCCNCC1,9.48,3:6:9:12,amine_secondary:amine_secondary:amine_secondary:amine_secondary,"1,4,7,10-Tetraazacyclopentadecane"
C1CCNCCNCCNCCNCC1,5.4,3:6:9:12,amine_secondary:amine_secondary:amine_secondary:amine_secondary,"1,4,7,10-Tetraazacyclopentadecane"
C1CCNCCNCCNCCNCC1,5.17,3:6:9:12,amine_secondary:amine_secondary:amine_secondary:amine_secondary,"1,4,7,10-Tetraazacyclopentadecane"
C1CCNCCNCCNCCNCC1,5.71,3:6:9:12,amine_secondary:amine_secondary:amine_secondary:amine_secondary,"1,4,7,10-Tetraazacyclopentadecane"
C1CCNCCNCCNCCNCC1,1.6,3:6:9:12,amine_secondary:amine_secondary:amine_secondary:amine_secondary,"1,4,7,10-Tetraazacyclopentadecane"
C1CCNCCNCCNCCNCC1,1.3,3:6:9:12,amine_secondary:amine_secondary:amine_secondary:amine_secondary,"1,4,7,10-Tetraazacyclopentadecane"
C1CCCNCCNCCNCCNCC1,10.46,4:7:10:13,amine_secondary:amine_secondary:amine_secondary:amine_secondary,"1,4,7,10-Tetraazacyclohexadecane"