SMILES,pKa,Dissociable_Atoms,Functional_Group,Name
C[C@H](O)[C@H](N)C(O)=O,2.108,6:4,carboxylic_acid:amine_primary,allo-L-2-Amino-3-hydroxybutanoic acid (L-allo-Threonine)
N[C@@H](CCO)C(O)=O,9.28,6:0,carboxylic_acid:amine_primary,L-2-Amino-4-hydroxybutanoic acid (Homoserine)
N[C@@H](CCO)C(O)=O,9.33,6:0,carboxylic_acid:amine_primary,L-2-Amino-4-hydroxybutanoic acid (Homoserine)
N[C@@H](CCO)C(O)=O,9.5,6:0,carboxylic_acid:amine_primary,L-2-Amino-4-hydroxybutanoic acid (Homoserine)
N[C@@H](CCO)C(O)=O,2.24,6:0,carboxylic_acid:amine_primary,L-2-Amino-4-hydroxybutanoic acid (Homoserine)
N[C@@H](CCO)C(O)=O,2.34,6:0,carboxylic_acid:amine_primary,L-2-Amino-4-hydroxybutanoic acid (Homoserine)
N[C@@H](CCO)C(O)=O,2.45,6:0,carboxylic_acid:amine_primary,L-2-Amino-4-hydroxybutanoic acid (Homoserine)
NCC(O)C(O)=O,9.13,5:0,carboxylic_acid:amine_primary,DL-3-Amino-2-hydroxypropanoic acid (Isoserine)
NCC(O)C(O)=O,2.66,5:0,carboxylic_acid:amine_primary,DL-3-Amino-2-hydroxypropanoic acid (Isoserine)
NC(C(O)C(O)C(O)CO)C(O)=O,9.08,11:0,carboxylic_acid:amine_primary,"D-gluco-2-Amino-3,4,5,6-tetrahydroxyhexanoic acid (D-Glucosaminic acid)"
NC(C(O)C(O)C(O)CO)C(O)=O,2.2,11:0,carboxylic_acid:amine_primary,"D-gluco-2-Amino-3,4,5,6-tetrahydroxyhexanoic acid (D-Glucosaminic acid)"
COc1ccc(NCC(O)=O)cc1,9.07,6:9,amine_secondary:carboxylic_acid,DL-Amino-4-Methoxyphenylacetic acid (4-Methoxyphenylglycine)
COc1ccc(NCC(O)=O)cc1,2.0,6:9,amine_secondary:carboxylic_acid,DL-Amino-4-Methoxyphenylacetic acid (4-Methoxyphenylglycine)
COC(=O)C[C@H](N)C([O-])=O,8.5,8,carboxylic_acid,L-2-Aminobutanedioic acid 4-methyl ester (4-Methyl aspartate)
CCOC(=O)CC[C@H](N)C([O-])=O,9.19,8:10,amine_primary:carboxylic_acid,DL-2-Aminopentanedioic acid 5-ethyl ester (5-Ethyl glutamate)
CCOC(=O)CC[C@H](N)C([O-])=O,2.15,8:10,amine_primary:carboxylic_acid,DL-2-Aminopentanedioic acid 5-ethyl ester (5-Ethyl glutamate)
N[C@@H](CCC(=O)OCc1ccccc1)C([O-])=O,8.89,0:15,amine_primary:carboxylic_acid,L-2-Aminopentanedioic acid 5-benzyl ester (5-Benzyl glutamate)
N[C@@H](CCC(=O)OCc1ccccc1)C([O-])=O,2.06,0:15,amine_primary:carboxylic_acid,L-2-Aminopentanedioic acid 5-benzyl ester (5-Benzyl glutamate)
CCOC(=O)[C@@H](N)CCC([O-])=O,7.84,6:10,amine_primary:carboxylic_acid,DL-2-Aminopentanedioic acid 1-ethyl ester (1-Ethyl glutamate)
CCOC(=O)[C@@H](N)CCC([O-])=O,3.85,6:10,amine_primary:carboxylic_acid,DL-2-Aminopentanedioic acid 1-ethyl ester (1-Ethyl glutamate)
N[C@@H](CC(N)=O)C(O)=O,8.73,7:0,carboxylic_acid:amine_primary,L-2-Aminobutanedioic acid 4-amide (Asparagine)
N[C@@H](CC(N)=O)C(O)=O,8.46,7:0,carboxylic_acid:amine_primary,L-2-Aminobutanedioic acid 4-amide (Asparagine)
N[C@@H](CC(N)=O)C(O)=O,8.64,7:0,carboxylic_acid:amine_primary,L-2-Aminobutanedioic acid 4-amide (Asparagine)
N[C@@H](CC(N)=O)C(O)=O,8.69,7:0,carboxylic_acid:amine_primary,L-2-Aminobutanedioic acid 4-amide (Asparagine)
N[C@@H](CC(N)=O)C(O)=O,9.3,7:0,carboxylic_acid:amine_primary,L-2-Aminobutanedioic acid 4-amide (Asparagine)
N[C@@H](CC(N)=O)C(O)=O,2.16,7:0,carboxylic_acid:amine_primary,L-2-Aminobutanedioic acid 4-amide (Asparagine)
N[C@@H](CC(N)=O)C(O)=O,2.15,7:0,carboxylic_acid:amine_primary,L-2-Aminobutanedioic acid 4-amide (Asparagine)
N[C@@H](CC(N)=O)C(O)=O,2.11,7:0,carboxylic_acid:amine_primary,L-2-Aminobutanedioic acid 4-amide (Asparagine)
N[C@@H](CC(N)=O)C(O)=O,2.59,7:0,carboxylic_acid:amine_primary,L-2-Aminobutanedioic acid 4-amide (Asparagine)
N[C@@H](CCC(N)=O)C(O)=O,9.0,8:0,carboxylic_acid:amine_primary,L-2-Aminopentanedioic acid 5-amide (Glutamine)
N[C@@H](CCC(N)=O)C(O)=O,8.7,8:0,carboxylic_acid:amine_primary,L-2-Aminopentanedioic acid 5-amide (Glutamine)
N[C@@H](CCC(N)=O)C(O)=O,8.94,8:0,carboxylic_acid:amine_primary,L-2-Aminopentanedioic acid 5-amide (Glutamine)
N[C@@H](CCC(N)=O)C(O)=O,9.64,8:0,carboxylic_acid:amine_primary,L-2-Aminopentanedioic acid 5-amide (Glutamine)
N[C@@H](CCC(N)=O)C(O)=O,2.19,8:0,carboxylic_acid:amine_primary,L-2-Aminopentanedioic acid 5-amide (Glutamine)
N[C@@H](CCC(N)=O)C(O)=O,2.14,8:0,carboxylic_acid:amine_primary,L-2-Aminopentanedioic acid 5-amide (Glutamine)
N[C@@H](CCC(N)=O)C(O)=O,2.72,8:0,carboxylic_acid:amine_primary,L-2-Aminopentanedioic acid 5-amide (Glutamine)
OC(=O)CCc1c[nH]cn1,7.44,0:7,carboxylic_acid:amine_secondary,3-(4-Imidazolyl)propanoic acid
OC(=O)CCc1c[nH]cn1,3.83,0:7,carboxylic_acid:amine_secondary,3-(4-Imidazolyl)propanoic acid
OC(Cc1c[nH]cn1)C(O)=O,7.31,9:5,carboxylic_acid:amine_secondary,2-Hydroxy-3-(4-imidazolyl)propanoic acid
OC(Cc1c[nH]cn1)C(O)=O,3.0,9:5,carboxylic_acid:amine_secondary,2-Hydroxy-3-(4-imidazolyl)propanoic acid
CC(=O)N[C@@H](Cc1c[nH]cn1)C(O)=O,7.02,12:3,carboxylic_acid:amine_secondary,N-Acetyl-L-histidine
CC(=O)N[C@@H](Cc1c[nH]cn1)C(O)=O,2.84,12:3,carboxylic_acid:amine_secondary,N-Acetyl-L-histidine
CC(=O)NCC(=O)N[C@@H](Cc1c[nH]cn1)C(O)=O,6.99,16:3,carboxylic_acid:amine_secondary,N-Acetylglycyl-L-histidine
CC(=O)NCC(=O)N[C@@H](Cc1c[nH]cn1)C(O)=O,2.87,16:3,carboxylic_acid:amine_secondary,N-Acetylglycyl-L-histidine
CC(=O)NCC(=O)NCC(=O)N[C@@H](Cc1c[nH]cn1)C(O)=O,7.06,20:3,carboxylic_acid:amine_secondary,N-Acetylglycylglycyl-L-histidine
CC(=O)NCC(=O)NCC(=O)N[C@@H](Cc1c[nH]cn1)C(O)=O,2.96,20:3,carboxylic_acid:amine_secondary,N-Acetylglycylglycyl-L-histidine
CC(=O)NCC(=O)N[C@@H](Cc1c[nH]cn1)C(=O)NCC(O)=O,6.74,20:3,carboxylic_acid:amine_secondary,N-Acetylglycyl-L-histidylglycine
CC(=O)NCC(=O)N[C@@H](Cc1c[nH]cn1)C(=O)NCC(O)=O,3.13,20:3,carboxylic_acid:amine_secondary,N-Acetylglycyl-L-histidylglycine
CC(=O)NCC(=O)N(CC(O)=O)C(=O)[C@@H](N)Cc1cncn1Cc2ccccc2,6.25,41:43,pyridine_nitrogen:pyridine_nitrogen,N-Acetylglycyl(N(3)-benzyl-L-histidyl)glycine
CC(=O)NCC(=O)N(CC(O)=O)C(=O)[C@@H](N)Cc1cncn1Cc2ccccc2,3.18,41:43,pyridine_nitrogen:pyridine_nitrogen,N-Acetylglycyl(N(3)-benzyl-L-histidyl)glycine
CC(=O)NCC(=O)NCC(=O)NCC(=O)N[C@@H](Cc1c[nH]cn1)C(O)=O,7.09,24:3,carboxylic_acid:amine_secondary,N-Acetylglycylglycylglycyl-L-histidine
CC(=O)NCC(=O)NCC(=O)NCC(=O)N[C@@H](Cc1c[nH]cn1)C(O)=O,3.04,24:3,carboxylic_acid:amine_secondary,N-Acetylglycylglycylglycyl-L-histidine
CC(=O)NCC(=O)NCC(=O)N[C@@H](Cc1c[nH]cn1)C(=O)NCC(O)=O,6.78,24:3,carboxylic_acid:amine_secondary,N-Acetylglycylglycyl-L-histidylglycine
CC(=O)NCC(=O)NCC(=O)N[C@@H](Cc1c[nH]cn1)C(=O)NCC(O)=O,3.17,24:3,carboxylic_acid:amine_secondary,N-Acetylglycylglycyl-L-histidylglycine
OC(=O)CNCCNCC(O)=O,9.61,0:4:7:10,carboxylic_acid:amine_secondary:amine_secondary:carboxylic_acid,Ethylenediiminodiacetic acid (EDDA)
OC(=O)CNCCNCC(O)=O,9.36,0:4:7:10,carboxylic_acid:amine_secondary:amine_secondary:carboxylic_acid,Ethylenediiminodiacetic acid (EDDA)
OC(=O)CNCCNCC(O)=O,9.64,0:4:7:10,carboxylic_acid:amine_secondary:amine_secondary:carboxylic_acid,Ethylenediiminodiacetic acid (EDDA)
OC(=O)CNCCNCC(O)=O,10.06,0:4:7:10,carboxylic_acid:amine_secondary:amine_secondary:carboxylic_acid,Ethylenediiminodiacetic acid (EDDA)
OC(=O)CNCCNCC(O)=O,6.55,0:4:7:10,carboxylic_acid:amine_secondary:amine_secondary:carboxylic_acid,Ethylenediiminodiacetic acid (EDDA)
OC(=O)CNCCNCC(O)=O,6.36,0:4:7:10,carboxylic_acid:amine_secondary:amine_secondary:carboxylic_acid,Ethylenediiminodiacetic acid (EDDA)
OC(=O)CNCCNCC(O)=O,6.7,0:4:7:10,carboxylic_acid:amine_secondary:amine_secondary:carboxylic_acid,Ethylenediiminodiacetic acid (EDDA)
OC(=O)CNCCNCC(O)=O,7.18,0:4:7:10,carboxylic_acid:amine_secondary:amine_secondary:carboxylic_acid,Ethylenediiminodiacetic acid (EDDA)
OC(=O)CNCCNCC(O)=O,2.12,0:4:7:10,carboxylic_acid:amine_secondary:amine_secondary:carboxylic_acid,Ethylenediiminodiacetic acid (EDDA)
OC(=O)CNCCNCC(O)=O,2.18,0:4:7:10,carboxylic_acid:amine_secondary:amine_secondary:carboxylic_acid,Ethylenediiminodiacetic acid (EDDA)
OC(=O)CNCCNCC(O)=O,2.35,0:4:7:10,carboxylic_acid:amine_secondary:amine_secondary:carboxylic_acid,Ethylenediiminodiacetic acid (EDDA)
OC(=O)CNCCNCC(O)=O,2.98,0:4:7:10,carboxylic_acid:amine_secondary:amine_secondary:carboxylic_acid,Ethylenediiminodiacetic acid (EDDA)
OC(=O)CNCCNCC(O)=O,1.3,0:4:7:10,carboxylic_acid:amine_secondary:amine_secondary:carboxylic_acid,Ethylenediiminodiacetic acid (EDDA)
OC(=O)CNCCNCC(O)=O,1.2,0:4:7:10,carboxylic_acid:amine_secondary:amine_secondary:carboxylic_acid,Ethylenediiminodiacetic acid (EDDA)
OC(=O)CNCCNCC(O)=O,1.75,0:4:7:10,carboxylic_acid:amine_secondary:amine_secondary:carboxylic_acid,Ethylenediiminodiacetic acid (EDDA)
OC(=O)CNCCNCC(O)=O,1.5,0:4:7:10,carboxylic_acid:amine_secondary:amine_secondary:carboxylic_acid,Ethylenediiminodiacetic acid (EDDA)
OC(=O)CN=C[P](O)(=O)C=NCC(O)=O,9.0,6:8:7,phosphate:phosphate:phosphate,Bis(carboxymethyliminomethyl)phosphinic acid
OC(=O)CN=C[P](O)(=O)C=NCC(O)=O,6.55,6:8:7,phosphate:phosphate:phosphate,Bis(carboxymethyliminomethyl)phosphinic acid
OC(=O)CN=C[P](O)(=O)C=NCC(O)=O,2.1,6:8:7,phosphate:phosphate:phosphate,Bis(carboxymethyliminomethyl)phosphinic acid
OC(=O)CC(NCCNC(CC(O)=O)C(O)=O)C(O)=O,10.01,0:12:15:18,carboxylic_acid:carboxylic_acid:carboxylic_acid:carboxylic_acid,Ethylenediiminodibutanedioic acid (EDDS)
OC(=O)CC(NCCNC(CC(O)=O)C(O)=O)C(O)=O,10.13,0:12:15:18,carboxylic_acid:carboxylic_acid:carboxylic_acid:carboxylic_acid,Ethylenediiminodibutanedioic acid (EDDS)
OC(=O)CC(NCCNC(CC(O)=O)C(O)=O)C(O)=O,6.84,0:12:15:18,carboxylic_acid:carboxylic_acid:carboxylic_acid:carboxylic_acid,Ethylenediiminodibutanedioic acid (EDDS)
OC(=O)CC(NCCNC(CC(O)=O)C(O)=O)C(O)=O,6.93,0:12:15:18,carboxylic_acid:carboxylic_acid:carboxylic_acid:carboxylic_acid,Ethylenediiminodibutanedioic acid (EDDS)
OC(=O)CC(NCCNC(CC(O)=O)C(O)=O)C(O)=O,6.72,0:12:15:18,carboxylic_acid:carboxylic_acid:carboxylic_acid:carboxylic_acid,Ethylenediiminodibutanedioic acid (EDDS)
OC(=O)CC(NCCNC(CC(O)=O)C(O)=O)C(O)=O,6.65,0:12:15:18,carboxylic_acid:carboxylic_acid:carboxylic_acid:carboxylic_acid,Ethylenediiminodibutanedioic acid (EDDS)
OC(=O)CC(NCCNC(CC(O)=O)C(O)=O)C(O)=O,7.52,0:12:15:18,carboxylic_acid:carboxylic_acid:carboxylic_acid:carboxylic_acid,Ethylenediiminodibutanedioic acid (EDDS)
OC(=O)CC(NCCNC(CC(O)=O)C(O)=O)C(O)=O,3.86,0:12:15:18,carboxylic_acid:carboxylic_acid:carboxylic_acid:carboxylic_acid,Ethylenediiminodibutanedioic acid (EDDS)
OC(=O)CC(NCCNC(CC(O)=O)C(O)=O)C(O)=O,3.85,0:12:15:18,carboxylic_acid:carboxylic_acid:carboxylic_acid:carboxylic_acid,Ethylenediiminodibutanedioic acid (EDDS)
OC(=O)CC(NCCNC(CC(O)=O)C(O)=O)C(O)=O,3.76,0:12:15:18,carboxylic_acid:carboxylic_acid:carboxylic_acid:carboxylic_acid,Ethylenediiminodibutanedioic acid (EDDS)
OC(=O)CC(NCCNC(CC(O)=O)C(O)=O)C(O)=O,3.81,0:12:15:18,carboxylic_acid:carboxylic_acid:carboxylic_acid:carboxylic_acid,Ethylenediiminodibutanedioic acid (EDDS)
OC(=O)CC(NCCNC(CC(O)=O)C(O)=O)C(O)=O,4.28,0:12:15:18,carboxylic_acid:carboxylic_acid:carboxylic_acid:carboxylic_acid,Ethylenediiminodibutanedioic acid (EDDS)
OC(=O)CC(NCCNC(CC(O)=O)C(O)=O)C(O)=O,2.95,0:12:15:18,carboxylic_acid:carboxylic_acid:carboxylic_acid:carboxylic_acid,Ethylenediiminodibutanedioic acid (EDDS)
OC(=O)CC(NCCNC(CC(O)=O)C(O)=O)C(O)=O,3.0,0:12:15:18,carboxylic_acid:carboxylic_acid:carboxylic_acid:carboxylic_acid,Ethylenediiminodibutanedioic acid (EDDS)
OC(CNC(C(O)=O)C(O)=O)CNC(C(O)=O)C(O)=O,10.4,6:9:15:18,carboxylic_acid:carboxylic_acid:carboxylic_acid:carboxylic_acid,"2-Hydroxy-1,3-propylenediiminodipropanedioic acid"
OC(CNC(C(O)=O)C(O)=O)CNC(C(O)=O)C(O)=O,8.9,6:9:15:18,carboxylic_acid:carboxylic_acid:carboxylic_acid:carboxylic_acid,"2-Hydroxy-1,3-propylenediiminodipropanedioic acid"
OC(CNC(C(O)=O)C(O)=O)CNC(C(O)=O)C(O)=O,3.4,6:9:15:18,carboxylic_acid:carboxylic_acid:carboxylic_acid:carboxylic_acid,"2-Hydroxy-1,3-propylenediiminodipropanedioic acid"
OC(CNC(C(O)=O)C(O)=O)CNC(C(O)=O)C(O)=O,2.41,6:9:15:18,carboxylic_acid:carboxylic_acid:carboxylic_acid:carboxylic_acid,"2-Hydroxy-1,3-propylenediiminodipropanedioic acid"
OC(=O)[C@H](CS)NCCN[C@@H](CS)C(O)=O,11.14,0:14:6:9:5,carboxylic_acid:carboxylic_acid:amine_secondary:amine_secondary:thiol,"L,L-Ethylenediimino-2,2'-bis(mercaptomethyl)acetic acid (N,N'-Ethylenedi-L-cysteine)"
OC(=O)[C@H](CS)NCCN[C@@H](CS)C(O)=O,9.88,0:14:6:9:5,carboxylic_acid:carboxylic_acid:amine_secondary:amine_secondary:thiol,"L,L-Ethylenediimino-2,2'-bis(mercaptomethyl)acetic acid (N,N'-Ethylenedi-L-cysteine)"
OC(=O)[C@H](CS)NCCN[C@@H](CS)C(O)=O,7.91,0:14:6:9:5,carboxylic_acid:carboxylic_acid:amine_secondary:amine_secondary:thiol,"L,L-Ethylenediimino-2,2'-bis(mercaptomethyl)acetic acid (N,N'-Ethylenedi-L-cysteine)"
OC(=O)[C@H](CS)NCCN[C@@H](CS)C(O)=O,5.4,0:14:6:9:5,carboxylic_acid:carboxylic_acid:amine_secondary:amine_secondary:thiol,"L,L-Ethylenediimino-2,2'-bis(mercaptomethyl)acetic acid (N,N'-Ethylenedi-L-cysteine)"
OC(=O)[C@H](CS)NCCN[C@@H](CS)C(O)=O,1.7,0:14:6:9:5,carboxylic_acid:carboxylic_acid:amine_secondary:amine_secondary:thiol,"L,L-Ethylenediimino-2,2'-bis(mercaptomethyl)acetic acid (N,N'-Ethylenedi-L-cysteine)"
OC(CN(CC(O)=O)CC(O)=O)c1ccccc1,8.43,6:10,carboxylic_acid:carboxylic_acid,N-(2-Hydroxy-2-phenylethyl)iminodiacetic acid
OC(CN(CC(O)=O)CC(O)=O)c1ccccc1,3.17,6:10,carboxylic_acid:carboxylic_acid,N-(2-Hydroxy-2-phenylethyl)iminodiacetic acid
OCCN(CCC(O)=O)CCC(O)=O,8.91,7:12,carboxylic_acid:carboxylic_acid,N-(2-Hydroxyethyl)iminodi-3-propanoic acid
OCCN(CCC(O)=O)CCC(O)=O,3.93,7:12,carboxylic_acid:carboxylic_acid,N-(2-Hydroxyethyl)iminodi-3-propanoic acid
OCC(CO)N(CC(O)=O)CC(O)=O,8.58,8:12,carboxylic_acid:carboxylic_acid,"N-(1,3-Dihydroxy-2-propyl)iminodiacetic acid"
OCC(CO)N(CC(O)=O)CC(O)=O,2.65,8:12,carboxylic_acid:carboxylic_acid,"N-(1,3-Dihydroxy-2-propyl)iminodiacetic acid"
CC(CO)(CO)N(CC(O)=O)CC(O)=O,8.45,9:13,carboxylic_acid:carboxylic_acid,"N-(1,3-Dihydroxy-2-methyl-2-propyl)iminodiacetic acid"
CC(CO)(CO)N(CC(O)=O)CC(O)=O,2.78,9:13,carboxylic_acid:carboxylic_acid,"N-(1,3-Dihydroxy-2-methyl-2-propyl)iminodiacetic acid"
CCC(CO)(CO)N(CC(O)=O)CC(O)=O,8.51,10:14,carboxylic_acid:carboxylic_acid,"N-(1,3-Dihydroxy-2-ethyl-2-propyl)iminodiacetic acid"
CCC(CO)(CO)N(CC(O)=O)CC(O)=O,3.01,10:14,carboxylic_acid:carboxylic_acid,"N-(1,3-Dihydroxy-2-ethyl-2-propyl)iminodiacetic acid"
OCC(C(O)c1ccccc1)N(CC(O)=O)CC(O)=O,8.64,14:18,carboxylic_acid:carboxylic_acid,"N-(1,3-Dihydroxy-1-phenyl-2-propyl)iminodiacetic acid"
OCC(C(O)c1ccccc1)N(CC(O)=O)CC(O)=O,2.52,14:18,carboxylic_acid:carboxylic_acid,"N-(1,3-Dihydroxy-1-phenyl-2-propyl)iminodiacetic acid"
COCCN(CC(O)=O)CC(O)=O,8.95,7:11,carboxylic_acid:carboxylic_acid,N-(2-Methoxyethyl)iminodiacetic acid
COCCN(CC(O)=O)CC(O)=O,8.96,7:11,carboxylic_acid:carboxylic_acid,N-(2-Methoxyethyl)iminodiacetic acid
COCCN(CC(O)=O)CC(O)=O,9.25,7:11,carboxylic_acid:carboxylic_acid,N-(2-Methoxyethyl)iminodiacetic acid
COCCN(CC(O)=O)CC(O)=O,2.18,7:11,carboxylic_acid:carboxylic_acid,N-(2-Methoxyethyl)iminodiacetic acid
COCCN(CC(O)=O)CC(O)=O,2.2,7:11,carboxylic_acid:carboxylic_acid,N-(2-Methoxyethyl)iminodiacetic acid
COCCN(CC(O)=O)CC(O)=O,2.48,7:11,carboxylic_acid:carboxylic_acid,N-(2-Methoxyethyl)iminodiacetic acid
COCCCN(CC(O)=O)CC(O)=O,10.02,8:12,carboxylic_acid:carboxylic_acid,N-(3-Methoxypropyl)iminodiacetic acid
COCCCN(CC(O)=O)CC(O)=O,2.61,8:12,carboxylic_acid:carboxylic_acid,N-(3-Methoxypropyl)iminodiacetic acid
OC(=O)CN(CC1CCCCO1)CC(O)=O,9.04,0:14,carboxylic_acid:carboxylic_acid,N-(2-Tetrahydropyranylmethyl)iminodiacetic acid
OC(=O)CN(CC1CCCCO1)CC(O)=O,1.9,0:14,carboxylic_acid:carboxylic_acid,N-(2-Tetrahydropyranylmethyl)iminodiacetic acid
OC(=O)CN(CC(O)=O)Cc1occc1,8.4,0:7,carboxylic_acid:carboxylic_acid,N-(2-Furylmethyl)iminodiacetic acid
OC(=O)CN(CC(O)=O)Cc1occc1,2.17,0:7,carboxylic_acid:carboxylic_acid,N-(2-Furylmethyl)iminodiacetic acid
OC(=O)CN(CCOc1ccccc1)CC(O)=O,8.38,7,tertiary_amine,N-(2-Phenoxyethyl)iminodiacetic acid
CC(=O)CN(CC(O)=O)CC(O)=O,7.71,7:11,carboxylic_acid:carboxylic_acid,N-(2-Oxopropyl)iminodiacetic acid
CC(=O)CN(CC(O)=O)CC(O)=O,2.62,7:11,carboxylic_acid:carboxylic_acid,N-(2-Oxopropyl)iminodiacetic acid
OC(=O)CN(CC(O)=O)CC(=O)c1ccccc1,7.89,7,tertiary_amine,N-(Benzoylmethyl)iminodiacetic acid
OC(=O)CN(CC(O)=O)CC(=O)c1ccccc1,7.91,7,tertiary_amine,N-(Benzoylmethyl)iminodiacetic acid
OC(=O)CN(CC(O)=O)CC(=O)c1ccccc1,1.9,7,tertiary_amine,N-(Benzoylmethyl)iminodiacetic acid
OC(=O)CN(CC(O)=O)CC(=O)c1ccccc1,1.7,7,tertiary_amine,N-(Benzoylmethyl)iminodiacetic acid
OC(=O)CN(CC(O)=O)CC(=O)c1ccccc1,1.1,7,tertiary_amine,N-(Benzoylmethyl)iminodiacetic acid
OC(=O)CN(CC(O)=O)CC(=O)Nc1ccccc1,6.1,0:7,carboxylic_acid:carboxylic_acid,N-(Phenylcarbamylmethyl)iminodiacetic acid
OC(=O)CN(CC(O)=O)CC(=O)Nc1ccccc1,2.07,0:7,carboxylic_acid:carboxylic_acid,N-(Phenylcarbamylmethyl)iminodiacetic acid
Cc1cccc(C)c1NC(=O)CN(CC(O)=O)CC(O)=O,5.88,15:19,carboxylic_acid:carboxylic_acid,"N-(2,6-Dimethylphenylcarbamylmethyl)iminodiacetic acid"
Cc1cccc(C)c1NC(=O)CN(CC(O)=O)CC(O)=O,2.16,15:19,carboxylic_acid:carboxylic_acid,"N-(2,6-Dimethylphenylcarbamylmethyl)iminodiacetic acid"
Cc1cc(C)c(NC(=O)CN(CC(O)=O)CC(O)=O)c(C)c1,6.01,13:17,carboxylic_acid:carboxylic_acid,"N-(2,4,6-Trimethylphenylcarbamylmethyl)iminodiacetic acid"
Cc1cc(C)c(NC(=O)CN(CC(O)=O)CC(O)=O)c(C)c1,2.19,13:17,carboxylic_acid:carboxylic_acid,"N-(2,4,6-Trimethylphenylcarbamylmethyl)iminodiacetic acid"
CCc1ccc(NC(=O)CN(CC(O)=O)CC(O)=O)c(CC)c1,5.77,13:17,carboxylic_acid:carboxylic_acid,"N-(2,4-Diethylphenylcarbamylmethyl)iminodiacetic acid"
CCc1ccc(NC(=O)CN(CC(O)=O)CC(O)=O)c(CC)c1,2.14,13:17,carboxylic_acid:carboxylic_acid,"N-(2,4-Diethylphenylcarbamylmethyl)iminodiacetic acid"
CC(C)c1cccc(C(C)C)c1NC(=O)CN(CC(O)=O)CC(O)=O,5.83,19:23,carboxylic_acid:carboxylic_acid,"N-(2,6-Di-2-propylphenylcarbamylmethyl)iminodiacetic acid"
CC(C)c1cccc(C(C)C)c1NC(=O)CN(CC(O)=O)CC(O)=O,2.2,19:23,carboxylic_acid:carboxylic_acid,"N-(2,6-Di-2-propylphenylcarbamylmethyl)iminodiacetic acid"
NC(=O)CCN(CC(O)=O)CC(O)=O,8.46,8:12,carboxylic_acid:carboxylic_acid,N-(2-Carbamylethyl)iminodiacetic acid
NC(=O)CCN(CC(O)=O)CC(O)=O,8.52,8:12,carboxylic_acid:carboxylic_acid,N-(2-Carbamylethyl)iminodiacetic acid
NC(=O)CCN(CC(O)=O)CC(O)=O,2.41,8:12,carboxylic_acid:carboxylic_acid,N-(2-Carbamylethyl)iminodiacetic acid
NC(=O)CCN(CC(O)=O)CC(O)=O,2.47,8:12,carboxylic_acid:carboxylic_acid,N-(2-Carbamylethyl)iminodiacetic acid
OC(=O)CNC(=O)CN(CC(O)=O)CC(O)=O,6.92,0:11:15,carboxylic_acid:carboxylic_acid:carboxylic_acid,"N,N-Bis(carboxymethyl)glycylglycine"
OC(=O)CNC(=O)CN(CC(O)=O)CC(O)=O,3.31,0:11:15,carboxylic_acid:carboxylic_acid:carboxylic_acid,"N,N-Bis(carboxymethyl)glycylglycine"
OC(=O)CNC(=O)CN(CC(O)=O)CC(O)=O,2.11,0:11:15,carboxylic_acid:carboxylic_acid:carboxylic_acid,"N,N-Bis(carboxymethyl)glycylglycine"
OC(=O)CNC(=O)CNC(=O)CN(CC(O)=O)CC(O)=O,6.56,0:15:19,carboxylic_acid:carboxylic_acid:carboxylic_acid,"N,N-Bis(carboxymethyl)glycylglycylglycine"
OC(=O)CNC(=O)CNC(=O)CN(CC(O)=O)CC(O)=O,3.55,0:15:19,carboxylic_acid:carboxylic_acid:carboxylic_acid,"N,N-Bis(carboxymethyl)glycylglycylglycine"
OC(=O)CNC(=O)CNC(=O)CN(CC(O)=O)CC(O)=O,2.14,0:15:19,carboxylic_acid:carboxylic_acid:carboxylic_acid,"N,N-Bis(carboxymethyl)glycylglycylglycine"
OC(=O)CNC(=O)CNC(=O)CNC(=O)CN(CC(O)=O)CC(O)=O,6.34,0:19:23,carboxylic_acid:carboxylic_acid:carboxylic_acid,"N,N-Bis(carboxymethyl)glycylglycylglycylglycine"
OC(=O)CNC(=O)CNC(=O)CNC(=O)CN(CC(O)=O)CC(O)=O,3.45,0:19:23,carboxylic_acid:carboxylic_acid:carboxylic_acid,"N,N-Bis(carboxymethyl)glycylglycylglycylglycine"
OC(=O)CNC(=O)CNC(=O)CNC(=O)CN(CC(O)=O)CC(O)=O,2.22,0:19:23,carboxylic_acid:carboxylic_acid:carboxylic_acid,"N,N-Bis(carboxymethyl)glycylglycylglycylglycine"
OC(=O)CN(CC(O)=O)CC(=O)Nc1ccc(Br)cc1,5.79,0:7:12,carboxylic_acid:carboxylic_acid:amine_secondary,N-(4-Bromophenylcarbamylmethyl)iminodiacetic acid
OC(=O)CN(CC(O)=O)CC(=O)Nc1ccc(Br)cc1,2.09,0:7:12,carboxylic_acid:carboxylic_acid:amine_secondary,N-(4-Bromophenylcarbamylmethyl)iminodiacetic acid
OC(=O)CN(CC(O)=O)CC(=O)Nc1ccc(Br)cc1,1.5,0:7:12,carboxylic_acid:carboxylic_acid:amine_secondary,N-(4-Bromophenylcarbamylmethyl)iminodiacetic acid
OC(=O)CN(CC(O)=O)C1C(=O)NC(=O)NC1=O,9.55,0:7:12,carboxylic_acid:carboxylic_acid:amine_secondary,"5-Amino-2,4,6-trioxo-1,3-perhydrodiazine-N,N-diacetic acid (Uramil-N,N-diacetic acid)"