SMILES,pKa,Dissociable_Atoms,Functional_Group,Name
OC(=O)CN(CC(O)=O)C1C(=O)NC(=O)NC1=O,9.71,0:7:12,carboxylic_acid:carboxylic_acid:amine_secondary,"5-Amino-2,4,6-trioxo-1,3-perhydrodiazine-N,N-diacetic acid (Uramil-N,N-diacetic acid)"
OC(=O)CN(CC(O)=O)C1C(=O)NC(=O)NC1=O,10.33,0:7:12,carboxylic_acid:carboxylic_acid:amine_secondary,"5-Amino-2,4,6-trioxo-1,3-perhydrodiazine-N,N-diacetic acid (Uramil-N,N-diacetic acid)"
OC(=O)CN(CC(O)=O)C1C(=O)NC(=O)NC1=O,2.75,0:7:12,carboxylic_acid:carboxylic_acid:amine_secondary,"5-Amino-2,4,6-trioxo-1,3-perhydrodiazine-N,N-diacetic acid (Uramil-N,N-diacetic acid)"
OC(=O)CN(CC(O)=O)C1C(=O)NC(=O)NC1=O,2.67,0:7:12,carboxylic_acid:carboxylic_acid:amine_secondary,"5-Amino-2,4,6-trioxo-1,3-perhydrodiazine-N,N-diacetic acid (Uramil-N,N-diacetic acid)"
OC(=O)CN(CC(O)=O)C1C(=O)NC(=O)NC1=O,3.1,0:7:12,carboxylic_acid:carboxylic_acid:amine_secondary,"5-Amino-2,4,6-trioxo-1,3-perhydrodiazine-N,N-diacetic acid (Uramil-N,N-diacetic acid)"
OC(=O)CN(CC(O)=O)C1C(=O)NC(=O)NC1=O,1.9,0:7:12,carboxylic_acid:carboxylic_acid:amine_secondary,"5-Amino-2,4,6-trioxo-1,3-perhydrodiazine-N,N-diacetic acid (Uramil-N,N-diacetic acid)"
OC(=O)CN(CC(O)=O)C1C(=O)NC(=O)NC1=O,1.7,0:7:12,carboxylic_acid:carboxylic_acid:amine_secondary,"5-Amino-2,4,6-trioxo-1,3-perhydrodiazine-N,N-diacetic acid (Uramil-N,N-diacetic acid)"
CCOC(=O)NCCN(CC(O)=O)CC(O)=O,8.57,11:15,carboxylic_acid:carboxylic_acid,N-[2-(Ethoxyformylamino)ethyl]iminodiacetic acid
CCOC(=O)NCCN(CC(O)=O)CC(O)=O,2.2,11:15,carboxylic_acid:carboxylic_acid,N-[2-(Ethoxyformylamino)ethyl]iminodiacetic acid
OC(=O)CN(CCS)CC(O)=O,10.79,0:7:10,carboxylic_acid:thiol:carboxylic_acid,N-(2-Mercaptoethyl)iminodiacetic acid
OC(=O)CN(CCS)CC(O)=O,8.17,0:7:10,carboxylic_acid:thiol:carboxylic_acid,N-(2-Mercaptoethyl)iminodiacetic acid
OC(=O)CN(CCS)CC(O)=O,2.14,0:7:10,carboxylic_acid:thiol:carboxylic_acid,N-(2-Mercaptoethyl)iminodiacetic acid
CSCCN(CC(O)=O)CC(O)=O,8.89,7:11,carboxylic_acid:carboxylic_acid,N-[2-(Methylthio)ethyl]iminodiacetic acid
CSCCN(CC(O)=O)CC(O)=O,8.91,7:11,carboxylic_acid:carboxylic_acid,N-[2-(Methylthio)ethyl]iminodiacetic acid
CSCCN(CC(O)=O)CC(O)=O,2.0,7:11,carboxylic_acid:carboxylic_acid,N-[2-(Methylthio)ethyl]iminodiacetic acid
CSCCN(CC(O)=O)CC(O)=O,2.1,7:11,carboxylic_acid:carboxylic_acid,N-[2-(Methylthio)ethyl]iminodiacetic acid
OC(=O)CN(CC(O)=O)CC(=O)c1sccc1,7.46,0:7,carboxylic_acid:carboxylic_acid,N-(2-Thienoylmethyl)iminodiacetic acid
OC(=O)CN(CC(O)=O)CC(=O)c1sccc1,2.0,0:7,carboxylic_acid:carboxylic_acid,N-(2-Thienoylmethyl)iminodiacetic acid
CC(=NO)C(CN(CC(O)=O)CC(O)=O)=NO,12.2,3:9:13:16,alcohol:carboxylic_acid:carboxylic_acid:alcohol,"1-[Bis(carboxymethyl)amino]butan-2,3-dione dioxime"
CC(=NO)C(CN(CC(O)=O)CC(O)=O)=NO,10.47,3:9:13:16,alcohol:carboxylic_acid:carboxylic_acid:alcohol,"1-[Bis(carboxymethyl)amino]butan-2,3-dione dioxime"
CC(=NO)C(CN(CC(O)=O)CC(O)=O)=NO,8.23,3:9:13:16,alcohol:carboxylic_acid:carboxylic_acid:alcohol,"1-[Bis(carboxymethyl)amino]butan-2,3-dione dioxime"
CC(=NO)C(CN(CC(O)=O)CC(O)=O)=NO,2.03,3:9:13:16,alcohol:carboxylic_acid:carboxylic_acid:alcohol,"1-[Bis(carboxymethyl)amino]butan-2,3-dione dioxime"
OC(=O)CSCCN(CC(O)=O)CC(O)=O,8.82,0:10:14,carboxylic_acid:carboxylic_acid:carboxylic_acid,N-[2-(Carboxymethylthio)ethyl]iminodiacetic acid
OC(=O)CSCCN(CC(O)=O)CC(O)=O,3.53,0:10:14,carboxylic_acid:carboxylic_acid:carboxylic_acid,N-[2-(Carboxymethylthio)ethyl]iminodiacetic acid
OC(=O)CSCCN(CC(O)=O)CC(O)=O,2.0,0:10:14,carboxylic_acid:carboxylic_acid:carboxylic_acid,N-[2-(Carboxymethylthio)ethyl]iminodiacetic acid
OC(=O)CN(CCN[S](=O)(=O)c1ccccc1)CC(O)=O,7.82,0:19,carboxylic_acid:carboxylic_acid,N-[2-(Phenylsulfonylamino)ethyl]iminodiacetic acid
OC(=O)CN(CCN[S](=O)(=O)c1ccccc1)CC(O)=O,2.1,0:19,carboxylic_acid:carboxylic_acid,N-[2-(Phenylsulfonylamino)ethyl]iminodiacetic acid
Cc1ccc(cc1)[S](=O)(=O)NCCN(CC(O)=O)CC(O)=O,7.86,16:20,carboxylic_acid:carboxylic_acid,N-[2-(4-Methylphenylsulfonylamino)ethyl]iminodiacetic acid
Cc1ccc(cc1)[S](=O)(=O)NCCN(CC(O)=O)CC(O)=O,2.15,16:20,carboxylic_acid:carboxylic_acid,N-[2-(4-Methylphenylsulfonylamino)ethyl]iminodiacetic acid
OC(=O)CN(CCN[S](=O)(=O)c1ccc(CCBr)cc1)CC(O)=O,7.75,0:22,carboxylic_acid:carboxylic_acid,N-{2-[4-(2-Bromoethyl)phenylsulfonylamino]ethyl}iminodiacetic acid
OC(=O)CN(CCN[S](=O)(=O)c1ccc(CCBr)cc1)CC(O)=O,2.15,0:22,carboxylic_acid:carboxylic_acid,N-{2-[4-(2-Bromoethyl)phenylsulfonylamino]ethyl}iminodiacetic acid
CC(=O)NCCN(CC(O)=O)CC(O)=O,8.17,9:13,carboxylic_acid:carboxylic_acid,N-[2-(Acetamido)ethyl]iminodiacetic acid
CC(=O)NCCN(CC(O)=O)CC(O)=O,1.9,9:13,carboxylic_acid:carboxylic_acid,N-[2-(Acetamido)ethyl]iminodiacetic acid
OCCN(CCN(CC(O)=O)CC(O)=O)CC(O)=O,9.7,0:9:13:17,alcohol:carboxylic_acid:carboxylic_acid:carboxylic_acid,N-(2-Hydroxyethyl)ethylenedinitrilotriacetic acid (HEDTA)
OCCN(CCN(CC(O)=O)CC(O)=O)CC(O)=O,9.87,0:9:13:17,alcohol:carboxylic_acid:carboxylic_acid:carboxylic_acid,N-(2-Hydroxyethyl)ethylenedinitrilotriacetic acid (HEDTA)
OCCN(CCN(CC(O)=O)CC(O)=O)CC(O)=O,9.79,0:9:13:17,alcohol:carboxylic_acid:carboxylic_acid:carboxylic_acid,N-(2-Hydroxyethyl)ethylenedinitrilotriacetic acid (HEDTA)
OCCN(CCN(CC(O)=O)CC(O)=O)CC(O)=O,9.2,0:9:13:17,alcohol:carboxylic_acid:carboxylic_acid:carboxylic_acid,N-(2-Hydroxyethyl)ethylenedinitrilotriacetic acid (HEDTA)
OCCN(CCN(CC(O)=O)CC(O)=O)CC(O)=O,9.73,0:9:13:17,alcohol:carboxylic_acid:carboxylic_acid:carboxylic_acid,N-(2-Hydroxyethyl)ethylenedinitrilotriacetic acid (HEDTA)
OCCN(CCN(CC(O)=O)CC(O)=O)CC(O)=O,5.38,0:9:13:17,alcohol:carboxylic_acid:carboxylic_acid:carboxylic_acid,N-(2-Hydroxyethyl)ethylenedinitrilotriacetic acid (HEDTA)
OCCN(CCN(CC(O)=O)CC(O)=O)CC(O)=O,5.4,0:9:13:17,alcohol:carboxylic_acid:carboxylic_acid:carboxylic_acid,N-(2-Hydroxyethyl)ethylenedinitrilotriacetic acid (HEDTA)
OCCN(CCN(CC(O)=O)CC(O)=O)CC(O)=O,5.48,0:9:13:17,alcohol:carboxylic_acid:carboxylic_acid:carboxylic_acid,N-(2-Hydroxyethyl)ethylenedinitrilotriacetic acid (HEDTA)
OCCN(CCN(CC(O)=O)CC(O)=O)CC(O)=O,2.62,0:9:13:17,alcohol:carboxylic_acid:carboxylic_acid:carboxylic_acid,N-(2-Hydroxyethyl)ethylenedinitrilotriacetic acid (HEDTA)
OCCN(CCN(CC(O)=O)CC(O)=O)CC(O)=O,2.71,0:9:13:17,alcohol:carboxylic_acid:carboxylic_acid:carboxylic_acid,N-(2-Hydroxyethyl)ethylenedinitrilotriacetic acid (HEDTA)
OCCN(CCN(CC(O)=O)CC(O)=O)CC(O)=O,2.33,0:9:13:17,alcohol:carboxylic_acid:carboxylic_acid:carboxylic_acid,N-(2-Hydroxyethyl)ethylenedinitrilotriacetic acid (HEDTA)
OCCN(CCN(CC(O)=O)CC(O)=O)CC(O)=O,1.6,0:9:13:17,alcohol:carboxylic_acid:carboxylic_acid:carboxylic_acid,N-(2-Hydroxyethyl)ethylenedinitrilotriacetic acid (HEDTA)
OC(=O)CN(CCN(CC(O)=O)CC(O)=O)CC(O)=O,9.52,7:11,tertiary_amine:tertiary_amine,Ethylenedinitrilotetraacetic acid (EDTA)
OC(=O)CN(CCN(CC(O)=O)CC(O)=O)CC(O)=O,10.19,7:11,tertiary_amine:tertiary_amine,Ethylenedinitrilotetraacetic acid (EDTA)
OC(=O)CN(CCN(CC(O)=O)CC(O)=O)CC(O)=O,10.37,7:11,tertiary_amine:tertiary_amine,Ethylenedinitrilotetraacetic acid (EDTA)
OC(=O)CN(CCN(CC(O)=O)CC(O)=O)CC(O)=O,9.38,7:11,tertiary_amine:tertiary_amine,Ethylenedinitrilotetraacetic acid (EDTA)
OC(=O)CN(CCN(CC(O)=O)CC(O)=O)CC(O)=O,10.02,7:11,tertiary_amine:tertiary_amine,Ethylenedinitrilotetraacetic acid (EDTA)
OC(=O)CN(CCN(CC(O)=O)CC(O)=O)CC(O)=O,10.21,7:11,tertiary_amine:tertiary_amine,Ethylenedinitrilotetraacetic acid (EDTA)
OC(=O)CN(CCN(CC(O)=O)CC(O)=O)CC(O)=O,8.86,7:11,tertiary_amine:tertiary_amine,Ethylenedinitrilotetraacetic acid (EDTA)
OC(=O)CN(CCN(CC(O)=O)CC(O)=O)CC(O)=O,9.62,7:11,tertiary_amine:tertiary_amine,Ethylenedinitrilotetraacetic acid (EDTA)
OC(=O)CN(CCN(CC(O)=O)CC(O)=O)CC(O)=O,10.23,7:11,tertiary_amine:tertiary_amine,Ethylenedinitrilotetraacetic acid (EDTA)
OC(=O)CN(CCN(CC(O)=O)CC(O)=O)CC(O)=O,8.73,7:11,tertiary_amine:tertiary_amine,Ethylenedinitrilotetraacetic acid (EDTA)
OC(=O)CN(CCN(CC(O)=O)CC(O)=O)CC(O)=O,9.86,7:11,tertiary_amine:tertiary_amine,Ethylenedinitrilotetraacetic acid (EDTA)
OC(=O)CN(CCN(CC(O)=O)CC(O)=O)CC(O)=O,10.2,7:11,tertiary_amine:tertiary_amine,Ethylenedinitrilotetraacetic acid (EDTA)
OC(=O)CN(CCN(CC(O)=O)CC(O)=O)CC(O)=O,9.05,7:11,tertiary_amine:tertiary_amine,Ethylenedinitrilotetraacetic acid (EDTA)
OC(=O)CN(CCN(CC(O)=O)CC(O)=O)CC(O)=O,10.948,7:11,tertiary_amine:tertiary_amine,Ethylenedinitrilotetraacetic acid (EDTA)
OC(=O)CN(CCN(CC(O)=O)CC(O)=O)CC(O)=O,6.13,7:11,tertiary_amine:tertiary_amine,Ethylenedinitrilotetraacetic acid (EDTA)
OC(=O)CN(CCN(CC(O)=O)CC(O)=O)CC(O)=O,6.03,7:11,tertiary_amine:tertiary_amine,Ethylenedinitrilotetraacetic acid (EDTA)
OC(=O)CN(CCN(CC(O)=O)CC(O)=O)CC(O)=O,6.1,7:11,tertiary_amine:tertiary_amine,Ethylenedinitrilotetraacetic acid (EDTA)
OC(=O)CN(CCN(CC(O)=O)CC(O)=O)CC(O)=O,6.19,7:11,tertiary_amine:tertiary_amine,Ethylenedinitrilotetraacetic acid (EDTA)
OC(=O)CN(CCN(CC(O)=O)CC(O)=O)CC(O)=O,7.02,7:11,tertiary_amine:tertiary_amine,Ethylenedinitrilotetraacetic acid (EDTA)
OC(=O)CN(CCN(CC(O)=O)CC(O)=O)CC(O)=O,6.273,7:11,tertiary_amine:tertiary_amine,Ethylenedinitrilotetraacetic acid (EDTA)
OC(=O)CN(CCN(CC(O)=O)CC(O)=O)CC(O)=O,2.69,7:11,tertiary_amine:tertiary_amine,Ethylenedinitrilotetraacetic acid (EDTA)
OC(=O)CN(CCN(CC(O)=O)CC(O)=O)CC(O)=O,2.79,7:11,tertiary_amine:tertiary_amine,Ethylenedinitrilotetraacetic acid (EDTA)
OC(=O)CN(CCN(CC(O)=O)CC(O)=O)CC(O)=O,2.52,7:11,tertiary_amine:tertiary_amine,Ethylenedinitrilotetraacetic acid (EDTA)
OC(=O)CN(CCN(CC(O)=O)CC(O)=O)CC(O)=O,2.54,7:11,tertiary_amine:tertiary_amine,Ethylenedinitrilotetraacetic acid (EDTA)
OC(=O)CN(CCN(CC(O)=O)CC(O)=O)CC(O)=O,2.0,7:11,tertiary_amine:tertiary_amine,Ethylenedinitrilotetraacetic acid (EDTA)
OC(=O)CN(CCN(CC(O)=O)CC(O)=O)CC(O)=O,2.05,7:11,tertiary_amine:tertiary_amine,Ethylenedinitrilotetraacetic acid (EDTA)
OC(=O)CN(CCN(CC(O)=O)CC(O)=O)CC(O)=O,2.02,7:11,tertiary_amine:tertiary_amine,Ethylenedinitrilotetraacetic acid (EDTA)
OC(=O)CN(CCN(CC(O)=O)CC(O)=O)CC(O)=O,2.2,7:11,tertiary_amine:tertiary_amine,Ethylenedinitrilotetraacetic acid (EDTA)
OC(=O)CN(CCN(CC(O)=O)CC(O)=O)CC(O)=O,1.5,7:11,tertiary_amine:tertiary_amine,Ethylenedinitrilotetraacetic acid (EDTA)
OC(=O)CN(CCN(CC(O)=O)CC(O)=O)CC(O)=O,1.6,7:11,tertiary_amine:tertiary_amine,Ethylenedinitrilotetraacetic acid (EDTA)
OC(=O)CN(CCN(CC(O)=O)CC(O)=O)CC(O)=O,1.4,7:11,tertiary_amine:tertiary_amine,Ethylenedinitrilotetraacetic acid (EDTA)
OC(=O)CN(CCN(CC(O)=O)CC(O)=O)CC(O)=O,1.7,7:11,tertiary_amine:tertiary_amine,Ethylenedinitrilotetraacetic acid (EDTA)
OC(=O)CN(CCN(CC(O)=O)CC(O)=O)CC(O)=O,0.0,7:11,tertiary_amine:tertiary_amine,Ethylenedinitrilotetraacetic acid (EDTA)
OC(=O)CN(CCN(CC(O)=O)CC(O)=O)CC(O)=O,0.4,7:11,tertiary_amine:tertiary_amine,Ethylenedinitrilotetraacetic acid (EDTA)
CC(CN(CC(O)=O)CC(O)=O)N(CC(O)=O)CC(O)=O,10.85,6:10:15:19,carboxylic_acid:carboxylic_acid:carboxylic_acid:carboxylic_acid,DL-(Methylethylene)dinitrilotetraacetic acid (PDTA)
CC(CN(CC(O)=O)CC(O)=O)N(CC(O)=O)CC(O)=O,11.01,6:10:15:19,carboxylic_acid:carboxylic_acid:carboxylic_acid:carboxylic_acid,DL-(Methylethylene)dinitrilotetraacetic acid (PDTA)
CC(CN(CC(O)=O)CC(O)=O)N(CC(O)=O)CC(O)=O,11.17,6:10:15:19,carboxylic_acid:carboxylic_acid:carboxylic_acid:carboxylic_acid,DL-(Methylethylene)dinitrilotetraacetic acid (PDTA)
CC(CN(CC(O)=O)CC(O)=O)N(CC(O)=O)CC(O)=O,6.24,6:10:15:19,carboxylic_acid:carboxylic_acid:carboxylic_acid:carboxylic_acid,DL-(Methylethylene)dinitrilotetraacetic acid (PDTA)
CC(CN(CC(O)=O)CC(O)=O)N(CC(O)=O)CC(O)=O,6.2,6:10:15:19,carboxylic_acid:carboxylic_acid:carboxylic_acid:carboxylic_acid,DL-(Methylethylene)dinitrilotetraacetic acid (PDTA)
CC(CN(CC(O)=O)CC(O)=O)N(CC(O)=O)CC(O)=O,6.4,6:10:15:19,carboxylic_acid:carboxylic_acid:carboxylic_acid:carboxylic_acid,DL-(Methylethylene)dinitrilotetraacetic acid (PDTA)
CC(CN(CC(O)=O)CC(O)=O)N(CC(O)=O)CC(O)=O,2.79,6:10:15:19,carboxylic_acid:carboxylic_acid:carboxylic_acid:carboxylic_acid,DL-(Methylethylene)dinitrilotetraacetic acid (PDTA)
CC(CN(CC(O)=O)CC(O)=O)N(CC(O)=O)CC(O)=O,1.8,6:10:15:19,carboxylic_acid:carboxylic_acid:carboxylic_acid:carboxylic_acid,DL-(Methylethylene)dinitrilotetraacetic acid (PDTA)
NCC(=O)NC(CO[P](O)(O)=O)C(O)=O,8.42,13:0:4,carboxylic_acid:amine_primary:amine_secondary,Glycyl-DL-phosphoserine (Glycyl-DL-serine dihydrogenphosphate)
NCC(=O)NC(CO[P](O)(O)=O)C(O)=O,6.03,13:0:4,carboxylic_acid:amine_primary:amine_secondary,Glycyl-DL-phosphoserine (Glycyl-DL-serine dihydrogenphosphate)
NCC(=O)NC(CO[P](O)(O)=O)C(O)=O,2.91,13:0:4,carboxylic_acid:amine_primary:amine_secondary,Glycyl-DL-phosphoserine (Glycyl-DL-serine dihydrogenphosphate)
NCC(=O)N[C@@H](Cc1ccc(O)cc1)C(O)=O,9.98,15:0:4,carboxylic_acid:amine_primary:amine_secondary,Glycyl-L-tyrosine
NCC(=O)N[C@@H](Cc1ccc(O)cc1)C(O)=O,8.14,15:0:4,carboxylic_acid:amine_primary:amine_secondary,Glycyl-L-tyrosine
NCC(=O)N[C@@H](Cc1ccc(O)cc1)C(O)=O,3.02,15:0:4,carboxylic_acid:amine_primary:amine_secondary,Glycyl-L-tyrosine
NCC(=O)N[C@@H](CO)C(O)=O,8.13,9:0,carboxylic_acid:amine_primary,Glycyl-L-serine
NCC(=O)N[C@@H](CO)C(O)=O,8.7,9:0,carboxylic_acid:amine_primary,Glycyl-L-serine
NCC(=O)N[C@@H](CO)C(O)=O,8.277,9:0,carboxylic_acid:amine_primary,Glycyl-L-serine
NCC(=O)N[C@@H](CO)C(O)=O,7.908,9:0,carboxylic_acid:amine_primary,Glycyl-L-serine
NCC(=O)N[C@@H](CO)C(O)=O,2.97,9:0,carboxylic_acid:amine_primary,Glycyl-L-serine
NCC(=O)N[C@@H](CO)C(O)=O,2.997,9:0,carboxylic_acid:amine_primary,Glycyl-L-serine
NCC(=O)N[C@@H](CO)C(O)=O,2.981,9:0,carboxylic_acid:amine_primary,Glycyl-L-serine
NCC(=O)N[C@@H](CO)C(O)=O,2.98,9:0,carboxylic_acid:amine_primary,Glycyl-L-serine
NCC(=O)N1C[C@H](O)C[C@H]1C(O)=O,8.37,11:0,carboxylic_acid:amine_primary,Glycyl-L-hydroxyproline
NCC(=O)N1C[C@H](O)C[C@H]1C(O)=O,2.8,11:0,carboxylic_acid:amine_primary,Glycyl-L-hydroxyproline
NCC(=O)N[C@@H](CC(N)=O)C(O)=O,8.12,11:0,carboxylic_acid:amine_primary,Glycyl-L-asparagine
NCC(=O)N[C@@H](CC(N)=O)C(O)=O,8.685,11:0,carboxylic_acid:amine_primary,Glycyl-L-asparagine
NCC(=O)N[C@@H](CC(N)=O)C(O)=O,8.268,11:0,carboxylic_acid:amine_primary,Glycyl-L-asparagine
NCC(=O)N[C@@H](CC(N)=O)C(O)=O,7.894,11:0,carboxylic_acid:amine_primary,Glycyl-L-asparagine
NCC(=O)N[C@@H](CC(N)=O)C(O)=O,3.12,11:0,carboxylic_acid:amine_primary,Glycyl-L-asparagine
NCC(=O)N[C@@H](CC(N)=O)C(O)=O,2.958,11:0,carboxylic_acid:amine_primary,Glycyl-L-asparagine
NCC(=O)N[C@@H](CC(N)=O)C(O)=O,2.942,11:0,carboxylic_acid:amine_primary,Glycyl-L-asparagine
NCC(=O)N[C@@H](CC(N)=O)C(O)=O,2.947,11:0,carboxylic_acid:amine_primary,Glycyl-L-asparagine
NCC(=O)N[C@@H](CS)C(O)=O,9.48,9:0:4,carboxylic_acid:amine_primary:amine_secondary,Glycyl-L-cysteine
NCC(=O)N[C@@H](CS)C(O)=O,8.04,9:0:4,carboxylic_acid:amine_primary:amine_secondary,Glycyl-L-cysteine
NCC(=O)N[C@@H](CS)C(O)=O,2.73,9:0:4,carboxylic_acid:amine_primary:amine_secondary,Glycyl-L-cysteine
CSCC[C@H](NC(=O)CN)C(O)=O,8.12,11:9,carboxylic_acid:amine_primary,Glycyl-L-methionine
CSCC[C@H](NC(=O)CN)C(O)=O,8.825,11:9,carboxylic_acid:amine_primary,Glycyl-L-methionine
CSCC[C@H](NC(=O)CN)C(O)=O,8.408,11:9,carboxylic_acid:amine_primary,Glycyl-L-methionine
CSCC[C@H](NC(=O)CN)C(O)=O,8.037,11:9,carboxylic_acid:amine_primary,Glycyl-L-methionine
CSCC[C@H](NC(=O)CN)C(O)=O,3.02,11:9,carboxylic_acid:amine_primary,Glycyl-L-methionine
NCCCC[C@H](NC(=O)CN)C(O)=O,10.46,12:0:10,carboxylic_acid:amine_primary:amine_primary,Glycyl-L-lysine
NCCCC[C@H](NC(=O)CN)C(O)=O,10.0,12:0:10,carboxylic_acid:amine_primary:amine_primary,Glycyl-L-lysine
NCCCC[C@H](NC(=O)CN)C(O)=O,8.02,12:0:10,carboxylic_acid:amine_primary:amine_primary,Glycyl-L-lysine
NCCCC[C@H](NC(=O)CN)C(O)=O,7.8,12:0:10,carboxylic_acid:amine_primary:amine_primary,Glycyl-L-lysine
NCCCC[C@H](NC(=O)CN)C(O)=O,2.8,12:0:10,carboxylic_acid:amine_primary:amine_primary,Glycyl-L-lysine
NCC(=O)N[C@@H](Cc1c[nH]cn1)C(O)=O,8.14,13:0:4,carboxylic_acid:amine_primary:amine_secondary,Glycyl-L-histidine
NCC(=O)N[C@@H](Cc1c[nH]cn1)C(O)=O,7.85,13:0:4,carboxylic_acid:amine_primary:amine_secondary,Glycyl-L-histidine
NCC(=O)N[C@@H](Cc1c[nH]cn1)C(O)=O,6.7,13:0:4,carboxylic_acid:amine_primary:amine_secondary,Glycyl-L-histidine
NCC(=O)N[C@@H](Cc1c[nH]cn1)C(O)=O,6.49,13:0:4,carboxylic_acid:amine_primary:amine_secondary,Glycyl-L-histidine
NCC(=O)N[C@@H](Cc1c[nH]cn1)C(O)=O,2.52,13:0:4,carboxylic_acid:amine_primary:amine_secondary,Glycyl-L-histidine
NCC(=O)N[C@@H](Cc1c[nH]cn1)C(O)=O,2.54,13:0:4,carboxylic_acid:amine_primary:amine_secondary,Glycyl-L-histidine
NCCC(=O)NCC(O)=O,9.4,8:0,carboxylic_acid:amine_primary,beta-Alanylglycine
NCCC(=O)NCC(O)=O,3.2,8:0,carboxylic_acid:amine_primary,beta-Alanylglycine
C[C@H](N)C(=O)NCC(O)=O,8.11,8:2,carboxylic_acid:amine_primary,L-Alanylglycine
C[C@H](N)C(=O)NCC(O)=O,3.13,8:2,carboxylic_acid:amine_primary,L-Alanylglycine
CC(C)[C@H](N)C(=O)NCC(O)=O,7.95,10:4,carboxylic_acid:amine_primary,L-Valylglycine
CC(C)[C@H](N)C(=O)NCC(O)=O,3.1,10:4,carboxylic_acid:amine_primary,L-Valylglycine
CC(C)C[C@H](N)C(=O)NCC(O)=O,8.0,11:5,carboxylic_acid:amine_primary,L-Leucylglycine
CC(C)C[C@H](N)C(=O)NCC(O)=O,8.12,11:5,carboxylic_acid:amine_primary,L-Leucylglycine
CC(C)C[C@H](N)C(=O)NCC(O)=O,3.11,11:5,carboxylic_acid:amine_primary,L-Leucylglycine
CC(C)C[C@H](N)C(=O)NCC(O)=O,3.08,11:5,carboxylic_acid:amine_primary,L-Leucylglycine
CC[C@H](C)[C@H](N)C(=O)NCC(O)=O,7.96,11:5,carboxylic_acid:amine_primary,L-Isoleucylglycine
CC[C@H](C)[C@H](N)C(=O)NCC(O)=O,3.04,11:5,carboxylic_acid:amine_primary,L-Isoleucylglycine
N[C@@H](Cc1ccccc1)C(=O)NCC(O)=O,7.48,14:0,carboxylic_acid:amine_primary,L-Phenylalanylglycine
N[C@@H](Cc1ccccc1)C(=O)NCC(O)=O,3.07,14:0,carboxylic_acid:amine_primary,L-Phenylalanylglycine
CNCC(=O)NCC(O)=O,8.44,8:1,carboxylic_acid:amine_secondary,Sarcosylglycine
CNCC(=O)NCC(O)=O,3.0,8:1,carboxylic_acid:amine_secondary,Sarcosylglycine
OC(=O)CNC(=O)[C@@H]1CCCN1,8.91,0:4,carboxylic_acid:amine_secondary,L-Prolylglycine
OC(=O)CNC(=O)[C@@H]1CCCN1,9.03,0:4,carboxylic_acid:amine_secondary,L-Prolylglycine
OC(=O)CNC(=O)[C@@H]1CCCN1,3.1,0:4,carboxylic_acid:amine_secondary,L-Prolylglycine
OC(=O)CNC(=O)[C@@H]1CCCN1,2.93,0:4,carboxylic_acid:amine_secondary,L-Prolylglycine
N[C@@H](CC(O)=O)C(=O)NCC(O)=O,8.03,4:11:0,carboxylic_acid:carboxylic_acid:amine_primary,L-Aspartylglycine
N[C@@H](CC(O)=O)C(=O)NCC(O)=O,3.67,4:11:0,carboxylic_acid:carboxylic_acid:amine_primary,L-Aspartylglycine
N[C@@H](CC(O)=O)C(=O)NCC(O)=O,2.82,4:11:0,carboxylic_acid:carboxylic_acid:amine_primary,L-Aspartylglycine
N[C@@H](CCC(O)=O)C(=O)NCC(O)=O,8.04,5:12:0,carboxylic_acid:carboxylic_acid:amine_primary,L-Glutamylglycine
N[C@@H](CCC(O)=O)C(=O)NCC(O)=O,7.87,5:12:0,carboxylic_acid:carboxylic_acid:amine_primary,L-Glutamylglycine
N[C@@H](CCC(O)=O)C(=O)NCC(O)=O,4.11,5:12:0,carboxylic_acid:carboxylic_acid:amine_primary,L-Glutamylglycine
N[C@@H](CCC(O)=O)C(=O)NCC(O)=O,4.14,5:12:0,carboxylic_acid:carboxylic_acid:amine_primary,L-Glutamylglycine
N[C@@H](CCC(O)=O)C(=O)NCC(O)=O,2.91,5:12:0,carboxylic_acid:carboxylic_acid:amine_primary,L-Glutamylglycine
N[C@@H](CCC(O)=O)C(=O)NCC(O)=O,3.15,5:12:0,carboxylic_acid:carboxylic_acid:amine_primary,L-Glutamylglycine
N[C@@H](Cc1ccc(O)cc1)C(=O)NCC(O)=O,9.92,15:0:12,carboxylic_acid:amine_primary:amine_secondary,L-Tyrosylglycine
N[C@@H](Cc1ccc(O)cc1)C(=O)NCC(O)=O,7.62,15:0:12,carboxylic_acid:amine_primary:amine_secondary,L-Tyrosylglycine
N[C@@H](Cc1ccc(O)cc1)C(=O)NCC(O)=O,3.14,15:0:12,carboxylic_acid:amine_primary:amine_secondary,L-Tyrosylglycine
N[C@@H](CO)C(=O)NCC(O)=O,7.34,9:0,carboxylic_acid:amine_primary,L-Serylglycine
N[C@@H](CO)C(=O)NCC(O)=O,3.15,9:0,carboxylic_acid:amine_primary,L-Serylglycine
N[C@@H](CS)C(=O)NCC(O)=O,9.3,9:0:6,carboxylic_acid:amine_primary:amine_secondary,L-Cysteinylglycine
N[C@@H](CS)C(=O)NCC(O)=O,6.91,9:0:6,carboxylic_acid:amine_primary:amine_secondary,L-Cysteinylglycine
N[C@@H](CS)C(=O)NCC(O)=O,3.15,9:0:6,carboxylic_acid:amine_primary:amine_secondary,L-Cysteinylglycine
CSCC[C@H](N)C(=O)NCC(O)=O,7.59,11:5,carboxylic_acid:amine_primary,L-Methionylglycine
CSCC[C@H](N)C(=O)NCC(O)=O,3.16,11:5,carboxylic_acid:amine_primary,L-Methionylglycine
NCCCC[C@H](N)C(=O)NCC(O)=O,10.61,12:0,carboxylic_acid:amine_primary,L-Lysylglycine
NCCCC[C@H](N)C(=O)NCC(O)=O,7.64,12:0,carboxylic_acid:amine_primary,L-Lysylglycine