SMILES,pKa,Dissociable_Atoms,Functional_Group,Name,Dissociable_Atoms_Ordered,Functional_Group_Ordered,Dissociation_Order
Cc1ccc(N(CC(O)=O)CC(O)=O)c(c1)N(CC(O)=O)CC(O)=O,2.92,8:12:19:23,carboxylic_acid:carboxylic_acid:carboxylic_acid:carboxylic_acid,"4-Methyl-1,2-phenylenedinitrilotetraacetic acid",8:12:19:23,carboxylic_acid:carboxylic_acid:carboxylic_acid:carboxylic_acid,8(carboxylic_acid) > 12(carboxylic_acid) > 19(carboxylic_acid) > 23(carboxylic_acid)
OC(=O)CN(CC(O)=O)c1cccc(c1)N(CC(O)=O)CC(O)=O,5.8,0:7:18:22,carboxylic_acid:carboxylic_acid:carboxylic_acid:carboxylic_acid,"1,3-Phenylenedinitrilotetraacetic acid",0:7:18:22,carboxylic_acid:carboxylic_acid:carboxylic_acid:carboxylic_acid,0(carboxylic_acid) > 7(carboxylic_acid) > 18(carboxylic_acid) > 22(carboxylic_acid)
OC(=O)CN(CC(O)=O)c1cccc(c1)N(CC(O)=O)CC(O)=O,5.51,0:7:18:22,carboxylic_acid:carboxylic_acid:carboxylic_acid:carboxylic_acid,"1,3-Phenylenedinitrilotetraacetic acid",0:7:18:22,carboxylic_acid:carboxylic_acid:carboxylic_acid:carboxylic_acid,0(carboxylic_acid) > 7(carboxylic_acid) > 18(carboxylic_acid) > 22(carboxylic_acid)
OC(=O)CN(CC(O)=O)c1cccc(c1)N(CC(O)=O)CC(O)=O,5.07,0:7:18:22,carboxylic_acid:carboxylic_acid:carboxylic_acid:carboxylic_acid,"1,3-Phenylenedinitrilotetraacetic acid",0:7:18:22,carboxylic_acid:carboxylic_acid:carboxylic_acid:carboxylic_acid,0(carboxylic_acid) > 7(carboxylic_acid) > 18(carboxylic_acid) > 22(carboxylic_acid)
OC(=O)CN(CC(O)=O)c1cccc(c1)N(CC(O)=O)CC(O)=O,4.85,0:7:18:22,carboxylic_acid:carboxylic_acid:carboxylic_acid:carboxylic_acid,"1,3-Phenylenedinitrilotetraacetic acid",0:7:18:22,carboxylic_acid:carboxylic_acid:carboxylic_acid:carboxylic_acid,0(carboxylic_acid) > 7(carboxylic_acid) > 18(carboxylic_acid) > 22(carboxylic_acid)
OC(=O)CN(CC(O)=O)c1cccc(c1)N(CC(O)=O)CC(O)=O,2.86,0:7:18:22,carboxylic_acid:carboxylic_acid:carboxylic_acid:carboxylic_acid,"1,3-Phenylenedinitrilotetraacetic acid",0:7:18:22,carboxylic_acid:carboxylic_acid:carboxylic_acid:carboxylic_acid,0(carboxylic_acid) > 7(carboxylic_acid) > 18(carboxylic_acid) > 22(carboxylic_acid)
OC(=O)CN(CC(O)=O)c1cccc(c1)N(CC(O)=O)CC(O)=O,2.82,0:7:18:22,carboxylic_acid:carboxylic_acid:carboxylic_acid:carboxylic_acid,"1,3-Phenylenedinitrilotetraacetic acid",0:7:18:22,carboxylic_acid:carboxylic_acid:carboxylic_acid:carboxylic_acid,0(carboxylic_acid) > 7(carboxylic_acid) > 18(carboxylic_acid) > 22(carboxylic_acid)
OC(=O)CN(CC(O)=O)c1cccc(c1)N(CC(O)=O)CC(O)=O,2.0,0:7:18:22,carboxylic_acid:carboxylic_acid:carboxylic_acid:carboxylic_acid,"1,3-Phenylenedinitrilotetraacetic acid",0:7:18:22,carboxylic_acid:carboxylic_acid:carboxylic_acid:carboxylic_acid,0(carboxylic_acid) > 7(carboxylic_acid) > 18(carboxylic_acid) > 22(carboxylic_acid)
Cc1c(cccc1N(CC(O)=O)CC(O)=O)N(CC(O)=O)CC(O)=O,6.14,10:28,tertiary_amine:tertiary_amine,"2-Methyl-1,3-phenylenedinitrilotetraacetic acid",10:28,tertiary_amine:tertiary_amine,10(tertiary_amine) > 28(tertiary_amine)
Cc1c(cccc1N(CC(O)=O)CC(O)=O)N(CC(O)=O)CC(O)=O,4.53,10:28,tertiary_amine:tertiary_amine,"2-Methyl-1,3-phenylenedinitrilotetraacetic acid",10:28,tertiary_amine:tertiary_amine,10(tertiary_amine) > 28(tertiary_amine)
Cc1c(cccc1N(CC(O)=O)CC(O)=O)N(CC(O)=O)CC(O)=O,3.44,10:28,tertiary_amine:tertiary_amine,"2-Methyl-1,3-phenylenedinitrilotetraacetic acid",10:28,tertiary_amine:tertiary_amine,10(tertiary_amine) > 28(tertiary_amine)
Cc1c(cccc1N(CC(O)=O)CC(O)=O)N(CC(O)=O)CC(O)=O,2.28,10:28,tertiary_amine:tertiary_amine,"2-Methyl-1,3-phenylenedinitrilotetraacetic acid",10:28,tertiary_amine:tertiary_amine,10(tertiary_amine) > 28(tertiary_amine)
Cc1c(cccc1N(CC(O)=O)CC(O)=O)N(CC(O)=O)CC(O)=O,1.9,10:28,tertiary_amine:tertiary_amine,"2-Methyl-1,3-phenylenedinitrilotetraacetic acid",10:28,tertiary_amine:tertiary_amine,10(tertiary_amine) > 28(tertiary_amine)
Cc1ccc(cc1N(CC(O)=O)CC(O)=O)N(CC(O)=O)CC(O)=O,6.58,10:14:19:23,carboxylic_acid:carboxylic_acid:carboxylic_acid:carboxylic_acid,"4-Methyl-1,3-phenylenedinitrilotetraacetic acid",10:14:19:23,carboxylic_acid:carboxylic_acid:carboxylic_acid:carboxylic_acid,10(carboxylic_acid) > 14(carboxylic_acid) > 19(carboxylic_acid) > 23(carboxylic_acid)
Cc1ccc(cc1N(CC(O)=O)CC(O)=O)N(CC(O)=O)CC(O)=O,4.82,10:14:19:23,carboxylic_acid:carboxylic_acid:carboxylic_acid:carboxylic_acid,"4-Methyl-1,3-phenylenedinitrilotetraacetic acid",10:14:19:23,carboxylic_acid:carboxylic_acid:carboxylic_acid:carboxylic_acid,10(carboxylic_acid) > 14(carboxylic_acid) > 19(carboxylic_acid) > 23(carboxylic_acid)
Cc1ccc(cc1N(CC(O)=O)CC(O)=O)N(CC(O)=O)CC(O)=O,3.0,10:14:19:23,carboxylic_acid:carboxylic_acid:carboxylic_acid:carboxylic_acid,"4-Methyl-1,3-phenylenedinitrilotetraacetic acid",10:14:19:23,carboxylic_acid:carboxylic_acid:carboxylic_acid:carboxylic_acid,10(carboxylic_acid) > 14(carboxylic_acid) > 19(carboxylic_acid) > 23(carboxylic_acid)
Cc1ccc(cc1N(CC(O)=O)CC(O)=O)N(CC(O)=O)CC(O)=O,2.16,10:14:19:23,carboxylic_acid:carboxylic_acid:carboxylic_acid:carboxylic_acid,"4-Methyl-1,3-phenylenedinitrilotetraacetic acid",10:14:19:23,carboxylic_acid:carboxylic_acid:carboxylic_acid:carboxylic_acid,10(carboxylic_acid) > 14(carboxylic_acid) > 19(carboxylic_acid) > 23(carboxylic_acid)
OC(=O)CN(CC(O)=O)c1ccc(cc1)N(CC(O)=O)CC(O)=O,6.06,0:7:18:22,carboxylic_acid:carboxylic_acid:carboxylic_acid:carboxylic_acid,"1,4-Phenylenedinitrilotetraacetic acid",0:7:18:22,carboxylic_acid:carboxylic_acid:carboxylic_acid:carboxylic_acid,0(carboxylic_acid) > 7(carboxylic_acid) > 18(carboxylic_acid) > 22(carboxylic_acid)
OC(=O)CN(CC(O)=O)c1ccc(cc1)N(CC(O)=O)CC(O)=O,5.65,0:7:18:22,carboxylic_acid:carboxylic_acid:carboxylic_acid:carboxylic_acid,"1,4-Phenylenedinitrilotetraacetic acid",0:7:18:22,carboxylic_acid:carboxylic_acid:carboxylic_acid:carboxylic_acid,0(carboxylic_acid) > 7(carboxylic_acid) > 18(carboxylic_acid) > 22(carboxylic_acid)
OC(=O)CN(CC(O)=O)c1ccc(cc1)N(CC(O)=O)CC(O)=O,4.92,0:7:18:22,carboxylic_acid:carboxylic_acid:carboxylic_acid:carboxylic_acid,"1,4-Phenylenedinitrilotetraacetic acid",0:7:18:22,carboxylic_acid:carboxylic_acid:carboxylic_acid:carboxylic_acid,0(carboxylic_acid) > 7(carboxylic_acid) > 18(carboxylic_acid) > 22(carboxylic_acid)
OC(=O)CN(CC(O)=O)c1ccc(cc1)N(CC(O)=O)CC(O)=O,4.61,0:7:18:22,carboxylic_acid:carboxylic_acid:carboxylic_acid:carboxylic_acid,"1,4-Phenylenedinitrilotetraacetic acid",0:7:18:22,carboxylic_acid:carboxylic_acid:carboxylic_acid:carboxylic_acid,0(carboxylic_acid) > 7(carboxylic_acid) > 18(carboxylic_acid) > 22(carboxylic_acid)
OC(=O)CN(CC(O)=O)c1ccc(cc1)N(CC(O)=O)CC(O)=O,2.85,0:7:18:22,carboxylic_acid:carboxylic_acid:carboxylic_acid:carboxylic_acid,"1,4-Phenylenedinitrilotetraacetic acid",0:7:18:22,carboxylic_acid:carboxylic_acid:carboxylic_acid:carboxylic_acid,0(carboxylic_acid) > 7(carboxylic_acid) > 18(carboxylic_acid) > 22(carboxylic_acid)
OC(=O)CN(CC(O)=O)c1ccc(cc1)N(CC(O)=O)CC(O)=O,5.76,0:7:18:22,carboxylic_acid:carboxylic_acid:carboxylic_acid:carboxylic_acid,"1,4-Phenylenedinitrilotetraacetic acid",0:7:18:22,carboxylic_acid:carboxylic_acid:carboxylic_acid:carboxylic_acid,0(carboxylic_acid) > 7(carboxylic_acid) > 18(carboxylic_acid) > 22(carboxylic_acid)
OC(=O)CN(CC(O)=O)c1ccc(cc1)N(CC(O)=O)CC(O)=O,1.8,0:7:18:22,carboxylic_acid:carboxylic_acid:carboxylic_acid:carboxylic_acid,"1,4-Phenylenedinitrilotetraacetic acid",0:7:18:22,carboxylic_acid:carboxylic_acid:carboxylic_acid:carboxylic_acid,0(carboxylic_acid) > 7(carboxylic_acid) > 18(carboxylic_acid) > 22(carboxylic_acid)
OC(=O)CN(CC(O)=O)c1ccc(cc1)N(CC(O)=O)CC(O)=O,2.1,0:7:18:22,carboxylic_acid:carboxylic_acid:carboxylic_acid:carboxylic_acid,"1,4-Phenylenedinitrilotetraacetic acid",0:7:18:22,carboxylic_acid:carboxylic_acid:carboxylic_acid:carboxylic_acid,0(carboxylic_acid) > 7(carboxylic_acid) > 18(carboxylic_acid) > 22(carboxylic_acid)
Cc1cc(ccc1N(CC(O)=O)CC(O)=O)N(CC(O)=O)CC(O)=O,7.1,10:14:19:23,carboxylic_acid:carboxylic_acid:carboxylic_acid:carboxylic_acid,"2-Methyl-1,4-phenylenedinitrilotetraacetic acid",10:14:19:23,carboxylic_acid:carboxylic_acid:carboxylic_acid:carboxylic_acid,10(carboxylic_acid) > 14(carboxylic_acid) > 19(carboxylic_acid) > 23(carboxylic_acid)
Cc1cc(ccc1N(CC(O)=O)CC(O)=O)N(CC(O)=O)CC(O)=O,4.96,10:14:19:23,carboxylic_acid:carboxylic_acid:carboxylic_acid:carboxylic_acid,"2-Methyl-1,4-phenylenedinitrilotetraacetic acid",10:14:19:23,carboxylic_acid:carboxylic_acid:carboxylic_acid:carboxylic_acid,10(carboxylic_acid) > 14(carboxylic_acid) > 19(carboxylic_acid) > 23(carboxylic_acid)
Cc1cc(ccc1N(CC(O)=O)CC(O)=O)N(CC(O)=O)CC(O)=O,3.07,10:14:19:23,carboxylic_acid:carboxylic_acid:carboxylic_acid:carboxylic_acid,"2-Methyl-1,4-phenylenedinitrilotetraacetic acid",10:14:19:23,carboxylic_acid:carboxylic_acid:carboxylic_acid:carboxylic_acid,10(carboxylic_acid) > 14(carboxylic_acid) > 19(carboxylic_acid) > 23(carboxylic_acid)
Cc1cc(ccc1N(CC(O)=O)CC(O)=O)N(CC(O)=O)CC(O)=O,2.27,10:14:19:23,carboxylic_acid:carboxylic_acid:carboxylic_acid:carboxylic_acid,"2-Methyl-1,4-phenylenedinitrilotetraacetic acid",10:14:19:23,carboxylic_acid:carboxylic_acid:carboxylic_acid:carboxylic_acid,10(carboxylic_acid) > 14(carboxylic_acid) > 19(carboxylic_acid) > 23(carboxylic_acid)
OC(=O)c1cccc2cccnc12,6.66,1:10,carboxylic_acid:pyridine_nitrogen,Quinoline-8-carboxylic acid,1:10,carboxylic_acid:pyridine_nitrogen,1(carboxylic_acid) > 10(pyridine_nitrogen)
OC(=O)c1cccc2cccnc12,6.59,1:10,carboxylic_acid:pyridine_nitrogen,Quinoline-8-carboxylic acid,1:10,carboxylic_acid:pyridine_nitrogen,1(carboxylic_acid) > 10(pyridine_nitrogen)
OC(=O)c1cccc2cccnc12,6.64,1:10,carboxylic_acid:pyridine_nitrogen,Quinoline-8-carboxylic acid,1:10,carboxylic_acid:pyridine_nitrogen,1(carboxylic_acid) > 10(pyridine_nitrogen)
OC(=O)c1cccc2cccnc12,6.58,1:10,carboxylic_acid:pyridine_nitrogen,Quinoline-8-carboxylic acid,1:10,carboxylic_acid:pyridine_nitrogen,1(carboxylic_acid) > 10(pyridine_nitrogen)
OC(=O)c1cccc2cccnc12,6.68,1:10,carboxylic_acid:pyridine_nitrogen,Quinoline-8-carboxylic acid,1:10,carboxylic_acid:pyridine_nitrogen,1(carboxylic_acid) > 10(pyridine_nitrogen)
OC(=O)c1cccc2cccnc12,7.01,1:10,carboxylic_acid:pyridine_nitrogen,Quinoline-8-carboxylic acid,1:10,carboxylic_acid:pyridine_nitrogen,1(carboxylic_acid) > 10(pyridine_nitrogen)
OC(=O)c1cccc2cccnc12,6.87,1:10,carboxylic_acid:pyridine_nitrogen,Quinoline-8-carboxylic acid,1:10,carboxylic_acid:pyridine_nitrogen,1(carboxylic_acid) > 10(pyridine_nitrogen)
OC(=O)c1cccc2cccnc12,1.9,1:10,carboxylic_acid:pyridine_nitrogen,Quinoline-8-carboxylic acid,1:10,carboxylic_acid:pyridine_nitrogen,1(carboxylic_acid) > 10(pyridine_nitrogen)
OC(=O)c1cccc2cccnc12,1.95,1:10,carboxylic_acid:pyridine_nitrogen,Quinoline-8-carboxylic acid,1:10,carboxylic_acid:pyridine_nitrogen,1(carboxylic_acid) > 10(pyridine_nitrogen)
OC(=O)c1cccc2cccnc12,1.8,1:10,carboxylic_acid:pyridine_nitrogen,Quinoline-8-carboxylic acid,1:10,carboxylic_acid:pyridine_nitrogen,1(carboxylic_acid) > 10(pyridine_nitrogen)
OC(=O)c1cccnc1C(O)=O,4.72,0:10,carboxylic_acid:carboxylic_acid,"Pyridine-2,3-dicarboxylic acid (Quinolinic acid)",0:10,carboxylic_acid:carboxylic_acid,0(carboxylic_acid) > 10(carboxylic_acid)
OC(=O)c1cccnc1C(O)=O,4.58,0:10,carboxylic_acid:carboxylic_acid,"Pyridine-2,3-dicarboxylic acid (Quinolinic acid)",0:10,carboxylic_acid:carboxylic_acid,0(carboxylic_acid) > 10(carboxylic_acid)
OC(=O)c1cccnc1C(O)=O,5.1,0:10,carboxylic_acid:carboxylic_acid,"Pyridine-2,3-dicarboxylic acid (Quinolinic acid)",0:10,carboxylic_acid:carboxylic_acid,0(carboxylic_acid) > 10(carboxylic_acid)
OC(=O)c1cccnc1C(O)=O,2.36,0:10,carboxylic_acid:carboxylic_acid,"Pyridine-2,3-dicarboxylic acid (Quinolinic acid)",0:10,carboxylic_acid:carboxylic_acid,0(carboxylic_acid) > 10(carboxylic_acid)
OC(=O)c1cccnc1C(O)=O,2.3,0:10,carboxylic_acid:carboxylic_acid,"Pyridine-2,3-dicarboxylic acid (Quinolinic acid)",0:10,carboxylic_acid:carboxylic_acid,0(carboxylic_acid) > 10(carboxylic_acid)
OC(=O)c1cccnc1C(O)=O,2.44,0:10,carboxylic_acid:carboxylic_acid,"Pyridine-2,3-dicarboxylic acid (Quinolinic acid)",0:10,carboxylic_acid:carboxylic_acid,0(carboxylic_acid) > 10(carboxylic_acid)
OC(=O)c1ccc(nc1)C(O)=O,4.58,0:10,carboxylic_acid:carboxylic_acid,"Pyridine-2,5-dicarboxylic acid (Isocinchomeronic acid)",0:10,carboxylic_acid:carboxylic_acid,0(carboxylic_acid) > 10(carboxylic_acid)
OC(=O)c1ccc(nc1)C(O)=O,4.63,0:10,carboxylic_acid:carboxylic_acid,"Pyridine-2,5-dicarboxylic acid (Isocinchomeronic acid)",0:10,carboxylic_acid:carboxylic_acid,0(carboxylic_acid) > 10(carboxylic_acid)
OC(=O)c1ccc(nc1)C(O)=O,5.02,0:10,carboxylic_acid:carboxylic_acid,"Pyridine-2,5-dicarboxylic acid (Isocinchomeronic acid)",0:10,carboxylic_acid:carboxylic_acid,0(carboxylic_acid) > 10(carboxylic_acid)
OC(=O)c1ccc(nc1)C(O)=O,2.17,0:10,carboxylic_acid:carboxylic_acid,"Pyridine-2,5-dicarboxylic acid (Isocinchomeronic acid)",0:10,carboxylic_acid:carboxylic_acid,0(carboxylic_acid) > 10(carboxylic_acid)
OC(=O)c1ccc(nc1)C(O)=O,2.35,0:10,carboxylic_acid:carboxylic_acid,"Pyridine-2,5-dicarboxylic acid (Isocinchomeronic acid)",0:10,carboxylic_acid:carboxylic_acid,0(carboxylic_acid) > 10(carboxylic_acid)
OC(=O)c1ccc(nc1)C(O)=O,2.38,0:10,carboxylic_acid:carboxylic_acid,"Pyridine-2,5-dicarboxylic acid (Isocinchomeronic acid)",0:10,carboxylic_acid:carboxylic_acid,0(carboxylic_acid) > 10(carboxylic_acid)
OC(=O)c1cccc(n1)C(O)=O,4.66,0:10,carboxylic_acid:carboxylic_acid,"Pyridine-2,6-dicarboxylic acid (Dipicolinic acid)",0:10,carboxylic_acid:carboxylic_acid,0(carboxylic_acid) > 10(carboxylic_acid)
OC(=O)c1cccc(n1)C(O)=O,4.51,0:10,carboxylic_acid:carboxylic_acid,"Pyridine-2,6-dicarboxylic acid (Dipicolinic acid)",0:10,carboxylic_acid:carboxylic_acid,0(carboxylic_acid) > 10(carboxylic_acid)
OC(=O)c1cccc(n1)C(O)=O,4.45,0:10,carboxylic_acid:carboxylic_acid,"Pyridine-2,6-dicarboxylic acid (Dipicolinic acid)",0:10,carboxylic_acid:carboxylic_acid,0(carboxylic_acid) > 10(carboxylic_acid)
OC(=O)c1cccc(n1)C(O)=O,5.09,0:10,carboxylic_acid:carboxylic_acid,"Pyridine-2,6-dicarboxylic acid (Dipicolinic acid)",0:10,carboxylic_acid:carboxylic_acid,0(carboxylic_acid) > 10(carboxylic_acid)
OC(=O)c1cccc(n1)C(O)=O,2.07,0:10,carboxylic_acid:carboxylic_acid,"Pyridine-2,6-dicarboxylic acid (Dipicolinic acid)",0:10,carboxylic_acid:carboxylic_acid,0(carboxylic_acid) > 10(carboxylic_acid)
OC(=O)c1cccc(n1)C(O)=O,2.05,0:10,carboxylic_acid:carboxylic_acid,"Pyridine-2,6-dicarboxylic acid (Dipicolinic acid)",0:10,carboxylic_acid:carboxylic_acid,0(carboxylic_acid) > 10(carboxylic_acid)
OC(=O)c1cccc(n1)C(O)=O,2.25,0:10,carboxylic_acid:carboxylic_acid,"Pyridine-2,6-dicarboxylic acid (Dipicolinic acid)",0:10,carboxylic_acid:carboxylic_acid,0(carboxylic_acid) > 10(carboxylic_acid)
OC(=O)c1cncc(c1)C(O)=O,4.3,1:8:3,carboxylic_acid:carboxylic_acid:pyridine_nitrogen,"Pyridine-3,5-dicarboxylic acid (Dinicotinic acid)",1:8:3,carboxylic_acid:carboxylic_acid:pyridine_nitrogen,1(carboxylic_acid) > 8(carboxylic_acid) > 3(pyridine_nitrogen)
OC(=O)c1cncc(c1)C(O)=O,2.1,1:8:3,carboxylic_acid:carboxylic_acid:pyridine_nitrogen,"Pyridine-3,5-dicarboxylic acid (Dinicotinic acid)",1:8:3,carboxylic_acid:carboxylic_acid:pyridine_nitrogen,1(carboxylic_acid) > 8(carboxylic_acid) > 3(pyridine_nitrogen)
OC(=O)c1cncc(c1)C(O)=O,1.1,1:8:3,carboxylic_acid:carboxylic_acid:pyridine_nitrogen,"Pyridine-3,5-dicarboxylic acid (Dinicotinic acid)",1:8:3,carboxylic_acid:carboxylic_acid:pyridine_nitrogen,1(carboxylic_acid) > 8(carboxylic_acid) > 3(pyridine_nitrogen)
OC(=O)c1cc(O)c2ccccc2n1,11.0,6:0,phenol:carboxylic_acid,4-Hydroxyquinoline-2-carboxylic acid,0:6,carboxylic_acid:phenol,0(carboxylic_acid) > 6(phenol)
OC(=O)c1cc(O)c2ccccc2n1,2.65,6:0,phenol:carboxylic_acid,4-Hydroxyquinoline-2-carboxylic acid,0:6,carboxylic_acid:phenol,0(carboxylic_acid) > 6(phenol)
OC(=O)C1=CC(=O)C=C(N1)C(O)=O,10.88,9:0:11,amine_secondary:carboxylic_acid:carboxylic_acid,"4-Hydroxypyridine-2,6-dicarboxylic acid (Chelidamic acid)",0:11:9,carboxylic_acid:carboxylic_acid:amine_secondary,0(carboxylic_acid) > 11(carboxylic_acid) > 9(amine_secondary)
OC(=O)C1=CC(=O)C=C(N1)C(O)=O,3.11,9:0:11,amine_secondary:carboxylic_acid:carboxylic_acid,"4-Hydroxypyridine-2,6-dicarboxylic acid (Chelidamic acid)",0:11:9,carboxylic_acid:carboxylic_acid:amine_secondary,0(carboxylic_acid) > 11(carboxylic_acid) > 9(amine_secondary)
OC(=O)C1=CC(=O)C=C(N1)C(O)=O,1.4,9:0:11,amine_secondary:carboxylic_acid:carboxylic_acid,"4-Hydroxypyridine-2,6-dicarboxylic acid (Chelidamic acid)",0:11:9,carboxylic_acid:carboxylic_acid:amine_secondary,0(carboxylic_acid) > 11(carboxylic_acid) > 9(amine_secondary)
Nc1cc(nc(c1)C(O)=O)C(O)=O,9.05,11:8,carboxylic_acid:carboxylic_acid,"4-Aminopyridine-2,6-dicarboxylic acid",11:8,carboxylic_acid:carboxylic_acid,11(carboxylic_acid) > 8(carboxylic_acid)
Nc1cc(nc(c1)C(O)=O)C(O)=O,2.29,11:8,carboxylic_acid:carboxylic_acid,"4-Aminopyridine-2,6-dicarboxylic acid",11:8,carboxylic_acid:carboxylic_acid,11(carboxylic_acid) > 8(carboxylic_acid)
CNc1cc(nc(c1)C(O)=O)C(O)=O,9.68,12:9,carboxylic_acid:carboxylic_acid,"4-(Methylamino)pyridine-2,6-dicarboxylic acid",12:9,carboxylic_acid:carboxylic_acid,12(carboxylic_acid) > 9(carboxylic_acid)
CNc1cc(nc(c1)C(O)=O)C(O)=O,1.3,12:9,carboxylic_acid:carboxylic_acid,"4-(Methylamino)pyridine-2,6-dicarboxylic acid",12:9,carboxylic_acid:carboxylic_acid,12(carboxylic_acid) > 9(carboxylic_acid)
CN(C)c1cc(nc(c1)C(O)=O)C(O)=O,9.77,13:10,carboxylic_acid:carboxylic_acid,"4-(Dimethylamino)pyridine-2,6-dicarboxylic acid",13:10,carboxylic_acid:carboxylic_acid,13(carboxylic_acid) > 10(carboxylic_acid)
CN(C)c1cc(nc(c1)C(O)=O)C(O)=O,1.5,13:10,carboxylic_acid:carboxylic_acid,"4-(Dimethylamino)pyridine-2,6-dicarboxylic acid",13:10,carboxylic_acid:carboxylic_acid,13(carboxylic_acid) > 10(carboxylic_acid)
OC(=O)c1cc(Nc2ccccc2)cc(n1)C(O)=O,8.65,0:17,carboxylic_acid:carboxylic_acid,"4-(Phenylamino)pyridine-2,6-dicarboxylic acid",0:17,carboxylic_acid:carboxylic_acid,0(carboxylic_acid) > 17(carboxylic_acid)
OC(=O)c1cc(Nc2ccccc2)cc(n1)C(O)=O,1.4,0:17,carboxylic_acid:carboxylic_acid,"4-(Phenylamino)pyridine-2,6-dicarboxylic acid",0:17,carboxylic_acid:carboxylic_acid,0(carboxylic_acid) > 17(carboxylic_acid)
NCC[S](O)(=O)=O,8.9,0:4,amine_primary:alcohol,2-Aminoethanesulfonic acid (Taurine),0:4,amine_primary:alcohol,0(amine_primary) > 4(alcohol)
NCC[S](O)(=O)=O,8.8,0:4,amine_primary:alcohol,2-Aminoethanesulfonic acid (Taurine),0:4,amine_primary:alcohol,0(amine_primary) > 4(alcohol)
NCC[S](O)(=O)=O,9.316,0:4,amine_primary:alcohol,2-Aminoethanesulfonic acid (Taurine),0:4,amine_primary:alcohol,0(amine_primary) > 4(alcohol)
NCC[S](O)(=O)=O,9.061,0:4,amine_primary:alcohol,2-Aminoethanesulfonic acid (Taurine),0:4,amine_primary:alcohol,0(amine_primary) > 4(alcohol)
NCC[S](O)(=O)=O,8.823,0:4,amine_primary:alcohol,2-Aminoethanesulfonic acid (Taurine),0:4,amine_primary:alcohol,0(amine_primary) > 4(alcohol)
NCC[S](O)(=O)=O,0.33,0:4,amine_primary:alcohol,2-Aminoethanesulfonic acid (Taurine),0:4,amine_primary:alcohol,0(amine_primary) > 4(alcohol)
NCCc1ccccc1O,9.27,0:9,amine_primary:phenol,2-(2-Aminoethyl)phenol,9:0,phenol:amine_primary,9(phenol) > 0(amine_primary)
NCCc1cccc(O)c1,10.47,0:8,amine_primary:phenol,3-(2-Aminoethyl)phenol,8:0,phenol:amine_primary,8(phenol) > 0(amine_primary)
NCCc1cccc(O)c1,10.3,0:8,amine_primary:phenol,3-(2-Aminoethyl)phenol,8:0,phenol:amine_primary,8(phenol) > 0(amine_primary)
NCCc1cccc(O)c1,9.34,0:8,amine_primary:phenol,3-(2-Aminoethyl)phenol,8:0,phenol:amine_primary,8(phenol) > 0(amine_primary)
NCCc1cccc(O)c1,9.28,0:8,amine_primary:phenol,3-(2-Aminoethyl)phenol,8:0,phenol:amine_primary,8(phenol) > 0(amine_primary)
NCCc1ccc(O)cc1,10.52,0:7,amine_primary:phenol,4-(2-Aminoethyl)phenol (Tyramine),7:0,phenol:amine_primary,7(phenol) > 0(amine_primary)
NCCc1ccc(O)cc1,10.41,0:7,amine_primary:phenol,4-(2-Aminoethyl)phenol (Tyramine),7:0,phenol:amine_primary,7(phenol) > 0(amine_primary)
NCCc1ccc(O)cc1,10.57,0:7,amine_primary:phenol,4-(2-Aminoethyl)phenol (Tyramine),7:0,phenol:amine_primary,7(phenol) > 0(amine_primary)
NCCc1ccc(O)cc1,9.43,0:7,amine_primary:phenol,4-(2-Aminoethyl)phenol (Tyramine),7:0,phenol:amine_primary,7(phenol) > 0(amine_primary)