SMILES,pKa,Dissociable_Atoms,Functional_Group,Name
COc1ccc(CN)cc1,9.56,7,amine_primary,4-Methoxybenzylamine
COc1ccc(CCN)cc1OC,9.87,8,amine_primary,"2-(3,4-Dimethoxyphenyl)ethylamine"
COC(=O)CN,7.66,5,amine_primary,Glycine methyl ester
CCOC(=O)CN,7.69,6,amine_primary,Glycine ethyl ester
CCOC(=O)CN,7.78,6,amine_primary,Glycine ethyl ester
CCOC(=O)CN,7.66,6,amine_primary,Glycine ethyl ester
CCCCOC(=O)CN,7.78,8,amine_primary,Glycine butyl ester
COC(=O)C(C)N,7.76,6,amine_primary,DL-Alanine methyl ester
CCOC(=O)C(C)N,7.91,7,amine_primary,DL-Alanine ethyl ester
CCCC(N)C(=O)OC,7.66,4,amine_primary,DL-Norvaline methyl ester
CCCCC(N)C(=O)OC,7.68,5,amine_primary,DL-Norleucine methyl ester
COC(=O)C(N)C(C)C,7.48,5,amine_primary,DL-Valine methyl ester
CCOC(=O)C(N)C(C)C,7.75,6,amine_primary,DL-Valine ethyl ester
COC(=O)C(N)CC(C)C,7.63,5,amine_primary,DL-Leucine methyl ester
CCOC(=O)C(N)CC(C)C,7.65,6,amine_primary,DL-Leucine ethyl ester
CCC(C)C(N)C(=O)OC,7.54,5,amine_primary,DL-Isoleucine methyl ester
COC(=O)[C@@H](N)Cc1ccccc1,7.03,5,amine_primary,L-Phenylalanine methyl ester
COC(=O)[C@@H](N)Cc1ccccc1,6.72,5,amine_primary,L-Phenylalanine methyl ester
CCOC(=O)C(N)Cc1ccccc1,7.12,6,amine_primary,DL-Phenylalanine ethyl ester
COC(=O)CCC(N)C(=O)OC,7.03,7,amine_primary,DL-Glutamic acid dimethyl ester
CCOC(=O)CCC(N)C(=O)OCC,7.035,8,amine_primary,DL-Glutamic acid diethyl ester
COC(=O)CCN,9.17,6,amine_primary,3-Aminopropanoic acid methyl ester
CCOC(=O)CCN,9.18,7,amine_primary,3-Aminopropanoic acid ethyl ester (beta-Alanine ethyl ester)
COC(=O)CCCN,9.84,7,amine_primary,4-Aminobutanoic acid methyl ester
CCOC(=O)CCCN,9.71,8,amine_primary,4-Aminobutanoic acid ethyl ester
CCOC(=O)CCCCN,10.151,9,amine_primary,5-Aminopentanoic acid ethyl ester
NCC(N)=O,7.98,0,amine_primary,Glycinamide
NCC(N)=O,8.2,0,amine_primary,Glycinamide
CCNC(=O)CN,8.19,6,amine_primary,Glycine ethylamide
CCN(CC)C(=O)CN,8.45,2,tertiary_amine,Glycine diethylamide
C[C@H](N)C(N)=O,8.03,2,amine_primary,L-Alaninamide
CC(C)(N)C(N)=O,8.06,3,amine_primary,2-Methylalaninamide
CC(C)[C@H](N)C(N)=O,7.72,4,amine_primary,L-Valinamide
CNC(=O)[C@@H](N)CC(C)C,7.72,5,amine_primary,L-Leucine methylamide
N[C@@H](Cc1ccccc1)C(N)=O,7.26,0,amine_primary,L-Phenylalaninamide
NCCC(N)=O,9.2,0,amine_primary,beta-Alaninamide
CCN(CC)C(=O)CCN,9.44,2,tertiary_amine,beta-Alanine diethylamide
NC(=O)[C@@H]1CCCN1,8.69,0,amine_primary,Prolinamide
NCC(=O)NCC(N)=O,7.78,0,amine_primary,Glycylglycinamide
NCC(=O)NCCC(N)=O,7.83,0,amine_primary,Glycyl-beta-alaninamide
NCCC(=O)NCC(N)=O,9.14,0,amine_primary,beta-Alanylglycinamide
NCCC(=O)NCCC(N)=O,9.21,0,amine_primary,beta-Alanyl-beta-alaninamide
CC(N)C(=O)NC(C)(C)C(N)=O,7.93,2,amine_primary,DL-Alanyl-2-methylalaninamide
CC(C)(N)C(=O)NC(C)(C)C(N)=O,7.93,3,amine_primary,2-Methylalanyl-2-methylalaninamide
NCC(=O)NCC(=O)NCC(N)=O,7.75,0,amine_primary,Glycylglycylglycinamide
CC(C)(N)C(=O)NC(C)(C)C(=O)NC(C)(C)C(N)=O,7.76,3,amine_primary,2-Methylalanyl-2-methylalanyl-2-methylalaninamide
N[C@@H](CO)C(N)=O,7.18,0,amine_primary,L-Serine amide
COC(=O)CNC(=O)CN,7.78,9,amine_primary,Glycylglycine methyl ester
CCOC(=O)CNC(=O)CN,7.76,10,amine_primary,Glycylglycine ethyl ester
CCOC(=O)CNC(=O)CN,7.71,10,amine_primary,Glycylglycine ethyl ester
COC(=O)CN(C)C(=O)CN,8.01,8,tertiary_amine,Glycylsarcosine methyl ester
NCC(=O)NO,9.18,0:4,amine_primary:amine_secondary,Aminoacetohydroxamic acid (Glycinehydroxamic acid)
NCC(=O)NO,9.26,0:4,amine_primary:amine_secondary,Aminoacetohydroxamic acid (Glycinehydroxamic acid)
NCC(=O)NO,9.1,0:4,amine_primary:amine_secondary,Aminoacetohydroxamic acid (Glycinehydroxamic acid)
NCC(=O)NO,7.45,0:4,amine_primary:amine_secondary,Aminoacetohydroxamic acid (Glycinehydroxamic acid)
NCC(=O)NO,7.5,0:4,amine_primary:amine_secondary,Aminoacetohydroxamic acid (Glycinehydroxamic acid)
NCC(=O)NO,7.48,0:4,amine_primary:amine_secondary,Aminoacetohydroxamic acid (Glycinehydroxamic acid)
C[C@H](N)C(=O)NO,9.15,2:5,amine_primary:amine_secondary,L-2-Aminopropanohydroxamic acid (Alaninehydroxamic acid)
C[C@H](N)C(=O)NO,9.18,2:5,amine_primary:amine_secondary,L-2-Aminopropanohydroxamic acid (Alaninehydroxamic acid)
C[C@H](N)C(=O)NO,9.19,2:5,amine_primary:amine_secondary,L-2-Aminopropanohydroxamic acid (Alaninehydroxamic acid)
C[C@H](N)C(=O)NO,7.26,2:5,amine_primary:amine_secondary,L-2-Aminopropanohydroxamic acid (Alaninehydroxamic acid)
C[C@H](N)C(=O)NO,7.44,2:5,amine_primary:amine_secondary,L-2-Aminopropanohydroxamic acid (Alaninehydroxamic acid)
C[C@H](N)C(=O)NO,7.4,2:5,amine_primary:amine_secondary,L-2-Aminopropanohydroxamic acid (Alaninehydroxamic acid)
CCC[C@H](N)C(=O)NO,9.13,4:7,amine_primary:amine_secondary,DL-2-Aminopentanohydroxamic acid (Norvalinehydroxamic acid)
CCC[C@H](N)C(=O)NO,7.34,4:7,amine_primary:amine_secondary,DL-2-Aminopentanohydroxamic acid (Norvalinehydroxamic acid)
CCCC[C@H](N)C(=O)NO,9.14,5:8,amine_primary:amine_secondary,DL-2-Aminohexanohydroxamic acid (Norleucinehydroxamic acid)
CCCC[C@H](N)C(=O)NO,7.33,5:8,amine_primary:amine_secondary,DL-2-Aminohexanohydroxamic acid (Norleucinehydroxamic acid)
CC(C)C[C@H](N)C(=O)NO,9.1,5:8,amine_primary:amine_secondary,L-2-Amino-4-methylpentanohydroxamic acid (Leucinehydroxamic acid)
CC(C)C[C@H](N)C(=O)NO,9.15,5:8,amine_primary:amine_secondary,L-2-Amino-4-methylpentanohydroxamic acid (Leucinehydroxamic acid)
CC(C)C[C@H](N)C(=O)NO,7.14,5:8,amine_primary:amine_secondary,L-2-Amino-4-methylpentanohydroxamic acid (Leucinehydroxamic acid)
CC(C)C[C@H](N)C(=O)NO,7.26,5:8,amine_primary:amine_secondary,L-2-Amino-4-methylpentanohydroxamic acid (Leucinehydroxamic acid)
CC[C@H](C)[C@H](N)C(=O)NO,9.15,5:8,amine_primary:amine_secondary,L-2-Amino-3-methylpentanohydroxamic acid (Isoleucinehydroxamic acid)
CC[C@H](C)[C@H](N)C(=O)NO,7.25,5:8,amine_primary:amine_secondary,L-2-Amino-3-methylpentanohydroxamic acid (Isoleucinehydroxamic acid)
N[C@@H](Cc1ccccc1)C(=O)NO,9.01,0:11,amine_primary:amine_secondary,DL-2-Amino-3-phenylpropanohydroxamic acid (Phenylalaninehydroxamic acid)
N[C@@H](Cc1ccccc1)C(=O)NO,6.89,0:11,amine_primary:amine_secondary,DL-2-Amino-3-phenylpropanohydroxamic acid (Phenylalaninehydroxamic acid)
NCCC(=O)NO,9.59,0:5,amine_primary:amine_secondary,3-Aminopropanohydroxamic acid (beta-Alaninehydroxamic acid)
NCCC(=O)NO,9.63,0:5,amine_primary:amine_secondary,3-Aminopropanohydroxamic acid (beta-Alaninehydroxamic acid)
NCCC(=O)NO,8.32,0:5,amine_primary:amine_secondary,3-Aminopropanohydroxamic acid (beta-Alaninehydroxamic acid)
NCCC(=O)NO,8.37,0:5,amine_primary:amine_secondary,3-Aminopropanohydroxamic acid (beta-Alaninehydroxamic acid)
N[C@@H](Cc1ccc(O)cc1)C(=O)NO,9.93,0:12:7,amine_primary:amine_secondary:phenol,L-2-Amino-3-(4-hydroxyphenyl)propanohydroxamic acid (Tyrosinehydroxamic acid)
N[C@@H](Cc1ccc(O)cc1)C(=O)NO,8.92,0:12:7,amine_primary:amine_secondary:phenol,L-2-Amino-3-(4-hydroxyphenyl)propanohydroxamic acid (Tyrosinehydroxamic acid)
N[C@@H](Cc1ccc(O)cc1)C(=O)NO,6.96,0:12:7,amine_primary:amine_secondary:phenol,L-2-Amino-3-(4-hydroxyphenyl)propanohydroxamic acid (Tyrosinehydroxamic acid)
N[C@@H](CO)C(=O)NO,9.04,0:6,amine_primary:amine_secondary,DL-2-Amino-3-hydroxypropanohydroxamic acid (Serinehydroxamic acid)
N[C@@H](CO)C(=O)NO,8.9,0:6,amine_primary:amine_secondary,DL-2-Amino-3-hydroxypropanohydroxamic acid (Serinehydroxamic acid)
N[C@@H](CO)C(=O)NO,6.8,0:6,amine_primary:amine_secondary,DL-2-Amino-3-hydroxypropanohydroxamic acid (Serinehydroxamic acid)
N[C@@H](CO)C(=O)NO,6.77,0:6,amine_primary:amine_secondary,DL-2-Amino-3-hydroxypropanohydroxamic acid (Serinehydroxamic acid)
C[C@@H](O)[C@H](N)C(=O)NO,8.89,4:7,amine_primary:amine_secondary,DL-2-Amino-3-hydroxybutanohydroxamic acid (Threoninehydroxamic acid)
C[C@@H](O)[C@H](N)C(=O)NO,8.87,4:7,amine_primary:amine_secondary,DL-2-Amino-3-hydroxybutanohydroxamic acid (Threoninehydroxamic acid)
C[C@@H](O)[C@H](N)C(=O)NO,6.92,4:7,amine_primary:amine_secondary,DL-2-Amino-3-hydroxybutanohydroxamic acid (Threoninehydroxamic acid)
C[C@@H](O)[C@H](N)C(=O)NO,6.77,4:7,amine_primary:amine_secondary,DL-2-Amino-3-hydroxybutanohydroxamic acid (Threoninehydroxamic acid)
N[C@@H](Cc1c[nH]c2ccccc12)C(=O)NO,9.09,0:5,amine_primary:amine_secondary,DL-2-Amino-3-(3-indole)propanohydroxamic acid (Tryptophanhydroxamic acid)
N[C@@H](Cc1c[nH]c2ccccc12)C(=O)NO,7.04,0:5,amine_primary:amine_secondary,DL-2-Amino-3-(3-indole)propanohydroxamic acid (Tryptophanhydroxamic acid)
N[C@@H](CCCNC(N)=N)C(=O)NO,13.23,0:7:5,amine_primary:amine_primary:amine_secondary,L-2-Amino-5-guanidopentanohydroxamic acid (Argininehydroxamic acid)
N[C@@H](CCCNC(N)=N)C(=O)NO,8.84,0:7:5,amine_primary:amine_primary:amine_secondary,L-2-Amino-5-guanidopentanohydroxamic acid (Argininehydroxamic acid)
N[C@@H](CCCNC(N)=N)C(=O)NO,6.88,0:7:5,amine_primary:amine_primary:amine_secondary,L-2-Amino-5-guanidopentanohydroxamic acid (Argininehydroxamic acid)
NCC(=O)NCC(=O)NO,8.4,0:4,amine_primary:amine_secondary,Glycylglycinehydroxamic acid
NCC(=O)NCC(=O)NO,7.52,0:4,amine_primary:amine_secondary,Glycylglycinehydroxamic acid
NCC(=O)NCC(=O)NCC(=O)NO,8.4,0:4,amine_primary:amine_secondary,Glycylglycylglycinehydroxamic acid
NCC(=O)NCC(=O)NCC(=O)NO,7.51,0:4,amine_primary:amine_secondary,Glycylglycylglycinehydroxamic acid
CC(=NO)C(C)(C)N,8.99,7,amine_primary,2-Amino-2-methylbutan-3-one oxime
NCC(N)=NO,7.94,0:3,amine_primary:amine_primary,2-Aminoacetamidoxime
NCC(N)=NO,2.47,0:3,amine_primary:amine_primary,2-Aminoacetamidoxime
NCCS,10.73,0:3,amine_primary:thiol,2-Aminoethanethiol (2-Mercaptoethylamine)
NCCS,10.81,0:3,amine_primary:thiol,2-Aminoethanethiol (2-Mercaptoethylamine)
NCCS,10.69,0:3,amine_primary:thiol,2-Aminoethanethiol (2-Mercaptoethylamine)
NCCS,8.21,0:3,amine_primary:thiol,2-Aminoethanethiol (2-Mercaptoethylamine)
NCCS,8.39,0:3,amine_primary:thiol,2-Aminoethanethiol (2-Mercaptoethylamine)
NCCS,8.28,0:3,amine_primary:thiol,2-Aminoethanethiol (2-Mercaptoethylamine)
COC(=O)[C@@H](N)CS,8.93,5:7,amine_primary:thiol,L-Cysteine methyl ester
COC(=O)[C@@H](N)CS,6.53,5:7,amine_primary:thiol,L-Cysteine methyl ester
CCOC(=O)[C@@H](N)CS,8.96,6:8,amine_primary:thiol,L-Cysteine ethyl ester
CCOC(=O)[C@@H](N)CS,8.91,6:8,amine_primary:thiol,L-Cysteine ethyl ester
CCOC(=O)[C@@H](N)CS,6.55,6:8,amine_primary:thiol,L-Cysteine ethyl ester
CCOC(=O)[C@@H](N)CS,6.39,6:8,amine_primary:thiol,L-Cysteine ethyl ester
CSCCN,9.44,4,amine_primary,2-(Methylthio)ethylamine
CSCCN,9.47,4,amine_primary,2-(Methylthio)ethylamine
CSCCN,9.45,4,amine_primary,2-(Methylthio)ethylamine
CSCCN,9.34,4,amine_primary,2-(Methylthio)ethylamine
CCSCCN,9.44,5,amine_primary,2-(Ethylthio)ethylamine
CCCSCCN,9.45,6,amine_primary,2-(Propylthio)ethylamine
CC(C)(C)SCCN,9.34,7,amine_primary,2-(2-Methyl-2-propylthio)ethylamine
CSCCCN,10.1,5,amine_primary,3-(Methylthio)propylamine
NCCSCCO,9.37,0,amine_primary,2-(2-Aminoethylthio)ethanol
NCCSCCO,9.18,0,amine_primary,2-(2-Aminoethylthio)ethanol
NCCSCCO,9.26,0,amine_primary,2-(2-Aminoethylthio)ethanol
CNC(=O)[C@@H](N)CCSC,7.33,5,amine_primary,L-Methionine methylamide
CNC(=O)[C@H](CCSC)NC(=O)[C@@H](N)Cc1ccccc1,7.15,13,amine_primary,L-Phenylalanyl-L-methionine methylamide
COC(=O)C(N)CCSC,7.1,5,amine_primary,DL-Methionine methyl ester
NCC[SeH],10.88,3,selenium_hydride,2-Aminoethaneselenol
NCC[SeH],4.9,3,selenium_hydride,2-Aminoethaneselenol
CC([SeH])CN,10.74,3,selenium_hydride,1-Aminopropane-2-selenol
CC([SeH])CN,5.08,3,selenium_hydride,1-Aminopropane-2-selenol
CC(C)([SeH])CN,10.84,6,selenium_hydride,1-Amino-2-methylpropane-2-selenol
CC(C)([SeH])CN,5.1,6,selenium_hydride,1-Amino-2-methylpropane-2-selenol
NCCC[SeH],11.2,4,selenium_hydride,3-Aminopropaneselenol
NCCC[SeH],6.16,4,selenium_hydride,3-Aminopropaneselenol
C[Se]CCN,9.42,4,amine_primary,2-(Methylseleno)ethylamine
NCCN,9.92,0:3,amine_primary:amine_primary,Ethylenediamine
NCCN,9.61,0:3,amine_primary:amine_primary,Ethylenediamine
NCCN,10.04,0:3,amine_primary:amine_primary,Ethylenediamine
NCCN,10.2,0:3,amine_primary:amine_primary,Ethylenediamine
NCCN,10.3,0:3,amine_primary:amine_primary,Ethylenediamine
NCCN,10.53,0:3,amine_primary:amine_primary,Ethylenediamine
NCCN,10.74,0:3,amine_primary:amine_primary,Ethylenediamine
NCCN,10.8,0:3,amine_primary:amine_primary,Ethylenediamine
NCCN,10.383,0:3,amine_primary:amine_primary,Ethylenediamine
NCCN,9.928,0:3,amine_primary:amine_primary,Ethylenediamine
NCCN,9.51,0:3,amine_primary:amine_primary,Ethylenediamine
NCCN,7.11,0:3,amine_primary:amine_primary,Ethylenediamine
NCCN,6.83,0:3,amine_primary:amine_primary,Ethylenediamine
NCCN,7.31,0:3,amine_primary:amine_primary,Ethylenediamine
NCCN,7.47,0:3,amine_primary:amine_primary,Ethylenediamine
NCCN,7.69,0:3,amine_primary:amine_primary,Ethylenediamine
NCCN,7.93,0:3,amine_primary:amine_primary,Ethylenediamine
NCCN,8.21,0:3,amine_primary:amine_primary,Ethylenediamine
NCCN,7.266,0:3,amine_primary:amine_primary,Ethylenediamine
NCCN,6.848,0:3,amine_primary:amine_primary,Ethylenediamine
NCCN,6.463,0:3,amine_primary:amine_primary,Ethylenediamine
CC(N)CN,9.81,2:4,amine_primary:amine_primary,"DL-Methylethylenediamine (1,2-Propylenediamine) (pn)"
CC(N)CN,9.94,2:4,amine_primary:amine_primary,"DL-Methylethylenediamine (1,2-Propylenediamine) (pn)"
CC(N)CN,10.09,2:4,amine_primary:amine_primary,"DL-Methylethylenediamine (1,2-Propylenediamine) (pn)"
CC(N)CN,10.24,2:4,amine_primary:amine_primary,"DL-Methylethylenediamine (1,2-Propylenediamine) (pn)"
CC(N)CN,10.47,2:4,amine_primary:amine_primary,"DL-Methylethylenediamine (1,2-Propylenediamine) (pn)"
CC(N)CN,9.77,2:4,amine_primary:amine_primary,"DL-Methylethylenediamine (1,2-Propylenediamine) (pn)"
CC(N)CN,6.85,2:4,amine_primary:amine_primary,"DL-Methylethylenediamine (1,2-Propylenediamine) (pn)"
CC(N)CN,7.07,2:4,amine_primary:amine_primary,"DL-Methylethylenediamine (1,2-Propylenediamine) (pn)"
CC(N)CN,7.22,2:4,amine_primary:amine_primary,"DL-Methylethylenediamine (1,2-Propylenediamine) (pn)"
CC(N)CN,7.45,2:4,amine_primary:amine_primary,"DL-Methylethylenediamine (1,2-Propylenediamine) (pn)"
CC(N)CN,7.65,2:4,amine_primary:amine_primary,"DL-Methylethylenediamine (1,2-Propylenediamine) (pn)"
CC(N)CN,6.61,2:4,amine_primary:amine_primary,"DL-Methylethylenediamine (1,2-Propylenediamine) (pn)"
CCC(N)CN,9.66,3:5,amine_primary:amine_primary,"DL-Ethylethylenediamine (1,2-Butylenediamine)"
CCC(N)CN,9.39,3:5,amine_primary:amine_primary,"DL-Ethylethylenediamine (1,2-Butylenediamine)"
CCC(N)CN,6.65,3:5,amine_primary:amine_primary,"DL-Ethylethylenediamine (1,2-Butylenediamine)"
CCC(N)CN,6.4,3:5,amine_primary:amine_primary,"DL-Ethylethylenediamine (1,2-Butylenediamine)"
CC(C)(C)NCCN,9.78,4:7,amine_secondary:amine_primary,DL-(2-Methyl-2-propyl)ethylenediamine (t-Butylethylenediamine)
CC(C)(C)NCCN,6.26,4:7,amine_secondary:amine_primary,DL-(2-Methyl-2-propyl)ethylenediamine (t-Butylethylenediamine)
CC(C)(N)CN,9.75,3:5,amine_primary:amine_primary,"1,1-Dimethylethylenediamine"
CC(C)(N)CN,9.89,3:5,amine_primary:amine_primary,"1,1-Dimethylethylenediamine"
CC(C)(N)CN,10.06,3:5,amine_primary:amine_primary,"1,1-Dimethylethylenediamine"
CC(C)(N)CN,10.31,3:5,amine_primary:amine_primary,"1,1-Dimethylethylenediamine"
CC(C)(N)CN,9.62,3:5,amine_primary:amine_primary,"1,1-Dimethylethylenediamine"
CC(C)(N)CN,6.46,3:5,amine_primary:amine_primary,"1,1-Dimethylethylenediamine"
CC(C)(N)CN,6.65,3:5,amine_primary:amine_primary,"1,1-Dimethylethylenediamine"
CC(C)(N)CN,6.84,3:5,amine_primary:amine_primary,"1,1-Dimethylethylenediamine"
CC(C)(N)CN,7.07,3:5,amine_primary:amine_primary,"1,1-Dimethylethylenediamine"
CC(C)(N)CN,6.21,3:5,amine_primary:amine_primary,"1,1-Dimethylethylenediamine"
CC(C)(N)C(C)(C)N,9.93,3:7,amine_primary:amine_primary,"1,1,2,2-Tetramethylethylenediamine"
CC(C)(N)C(C)(C)N,10.1,3:7,amine_primary:amine_primary,"1,1,2,2-Tetramethylethylenediamine"
CC(C)(N)C(C)(C)N,6.35,3:7,amine_primary:amine_primary,"1,1,2,2-Tetramethylethylenediamine"
CC(C)(N)C(C)(C)N,6.46,3:7,amine_primary:amine_primary,"1,1,2,2-Tetramethylethylenediamine"
NCCCN,10.54,0:4,amine_primary:amine_primary,"Trimethylenediamine (1,3-Propylenediamine)"
NCCCN,10.65,0:4,amine_primary:amine_primary,"Trimethylenediamine (1,3-Propylenediamine)"
NCCCN,10.77,0:4,amine_primary:amine_primary,"Trimethylenediamine (1,3-Propylenediamine)"
NCCCN,10.96,0:4,amine_primary:amine_primary,"Trimethylenediamine (1,3-Propylenediamine)"
NCCCN,11.11,0:4,amine_primary:amine_primary,"Trimethylenediamine (1,3-Propylenediamine)"
NCCCN,10.93,0:4,amine_primary:amine_primary,"Trimethylenediamine (1,3-Propylenediamine)"
NCCCN,10.48,0:4,amine_primary:amine_primary,"Trimethylenediamine (1,3-Propylenediamine)"
NCCCN,8.78,0:4,amine_primary:amine_primary,"Trimethylenediamine (1,3-Propylenediamine)"
NCCCN,8.94,0:4,amine_primary:amine_primary,"Trimethylenediamine (1,3-Propylenediamine)"
NCCCN,9.13,0:4,amine_primary:amine_primary,"Trimethylenediamine (1,3-Propylenediamine)"
NCCCN,9.3,0:4,amine_primary:amine_primary,"Trimethylenediamine (1,3-Propylenediamine)"
NCCCN,9.47,0:4,amine_primary:amine_primary,"Trimethylenediamine (1,3-Propylenediamine)"
NCCCN,9.71,0:4,amine_primary:amine_primary,"Trimethylenediamine (1,3-Propylenediamine)"
NCCCN,8.48,0:4,amine_primary:amine_primary,"Trimethylenediamine (1,3-Propylenediamine)"
CC(N)CCN,10.55,2:5,amine_primary:amine_primary,"DL-1-Methyltrimethylenediamine (1,3-Butylenediamine)"
CC(N)CCN,10.69,2:5,amine_primary:amine_primary,"DL-1-Methyltrimethylenediamine (1,3-Butylenediamine)"
CC(N)CCN,10.81,2:5,amine_primary:amine_primary,"DL-1-Methyltrimethylenediamine (1,3-Butylenediamine)"
CC(N)CCN,11.06,2:5,amine_primary:amine_primary,"DL-1-Methyltrimethylenediamine (1,3-Butylenediamine)"
CC(N)CCN,10.5,2:5,amine_primary:amine_primary,"DL-1-Methyltrimethylenediamine (1,3-Butylenediamine)"
CC(N)CCN,8.68,2:5,amine_primary:amine_primary,"DL-1-Methyltrimethylenediamine (1,3-Butylenediamine)"
CC(N)CCN,8.91,2:5,amine_primary:amine_primary,"DL-1-Methyltrimethylenediamine (1,3-Butylenediamine)"
CC(N)CCN,9.1,2:5,amine_primary:amine_primary,"DL-1-Methyltrimethylenediamine (1,3-Butylenediamine)"
CC(N)CCN,9.37,2:5,amine_primary:amine_primary,"DL-1-Methyltrimethylenediamine (1,3-Butylenediamine)"
CC(N)CCN,8.43,2:5,amine_primary:amine_primary,"DL-1-Methyltrimethylenediamine (1,3-Butylenediamine)"
CC(C)(CN)CN,10.22,4:6,amine_primary:amine_primary,"2,2-Dimethyltrimethylenediamine (2,2-Dimethyl-1,3-propylenediamine)"
CC(C)(CN)CN,8.18,4:6,amine_primary:amine_primary,"2,2-Dimethyltrimethylenediamine (2,2-Dimethyl-1,3-propylenediamine)"
NCC(=C)CN,10.09,0:5,amine_primary:amine_primary,"2-Methylenetrimethylenediamine (2-Methylene-1,3-propylenediamine)"
NCC(=C)CN,8.33,0:5,amine_primary:amine_primary,"2-Methylenetrimethylenediamine (2-Methylene-1,3-propylenediamine)"
NCCCCN,10.72,0:5,amine_primary:amine_primary,"Tetramethylenediamine (1,4-Butylenediamine) (Putrescine)"
NCCCCN,10.87,0:5,amine_primary:amine_primary,"Tetramethylenediamine (1,4-Butylenediamine) (Putrescine)"
NCCCCN,11.01,0:5,amine_primary:amine_primary,"Tetramethylenediamine (1,4-Butylenediamine) (Putrescine)"
NCCCCN,11.37,0:5,amine_primary:amine_primary,"Tetramethylenediamine (1,4-Butylenediamine) (Putrescine)"
NCCCCN,11.05,0:5,amine_primary:amine_primary,"Tetramethylenediamine (1,4-Butylenediamine) (Putrescine)"
NCCCCN,10.67,0:5,amine_primary:amine_primary,"Tetramethylenediamine (1,4-Butylenediamine) (Putrescine)"
NCCCCN,9.46,0:5,amine_primary:amine_primary,"Tetramethylenediamine (1,4-Butylenediamine) (Putrescine)"
NCCCCN,9.68,0:5,amine_primary:amine_primary,"Tetramethylenediamine (1,4-Butylenediamine) (Putrescine)"
NCCCCN,9.85,0:5,amine_primary:amine_primary,"Tetramethylenediamine (1,4-Butylenediamine) (Putrescine)"
NCCCCN,10.25,0:5,amine_primary:amine_primary,"Tetramethylenediamine (1,4-Butylenediamine) (Putrescine)"
NCCCCN,10.39,0:5,amine_primary:amine_primary,"Tetramethylenediamine (1,4-Butylenediamine) (Putrescine)"
NCCCCN,9.22,0:5,amine_primary:amine_primary,"Tetramethylenediamine (1,4-Butylenediamine) (Putrescine)"
NCCCCCN,10.9,0:6,amine_primary:amine_primary,Pentamethylenediamine (Cadaverine)
NCCCCCN,10.99,0:6,amine_primary:amine_primary,Pentamethylenediamine (Cadaverine)