SMILES,pKa,Dissociable_Atoms,Functional_Group,Name,Dissociable_Atoms_Ordered,Functional_Group_Ordered,Dissociation_Order
C1CNCCNCCCNCCNC1,2.1,2:5:9:12,amine_secondary:amine_secondary:amine_secondary:amine_secondary,"1,4,8,11-Tetraazacyclotetradecane ([14]aneN4)(Cyclam)",2:5:9:12,amine_secondary:amine_secondary:amine_secondary:amine_secondary,2(amine_secondary) > 5(amine_secondary) > 9(amine_secondary) > 12(amine_secondary)
C1CNCCNCCCNCCNC1,2.4,2:5:9:12,amine_secondary:amine_secondary:amine_secondary:amine_secondary,"1,4,8,11-Tetraazacyclotetradecane ([14]aneN4)(Cyclam)",2:5:9:12,amine_secondary:amine_secondary:amine_secondary:amine_secondary,2(amine_secondary) > 5(amine_secondary) > 9(amine_secondary) > 12(amine_secondary)
CC1CNCCNCCCNCCNC1,11.08,3:6:10,amine_secondary:amine_secondary:amine_secondary,"6-Methyl-1,4,8,11-tetraazacyclotetradecane",3:6:10,amine_secondary:amine_secondary:amine_secondary,3(amine_secondary) > 6(amine_secondary) > 10(amine_secondary)
CC1CNCCNCCCNCCNC1,10.12,3:6:10,amine_secondary:amine_secondary:amine_secondary,"6-Methyl-1,4,8,11-tetraazacyclotetradecane",3:6:10,amine_secondary:amine_secondary:amine_secondary,3(amine_secondary) > 6(amine_secondary) > 10(amine_secondary)
CC1CNCCNCCCNCCNC1,2.0,3:6:10,amine_secondary:amine_secondary:amine_secondary,"6-Methyl-1,4,8,11-tetraazacyclotetradecane",3:6:10,amine_secondary:amine_secondary:amine_secondary,3(amine_secondary) > 6(amine_secondary) > 10(amine_secondary)
CCC1CNCCNCCCNCCNC1,10.9,4:7:11,amine_secondary:amine_secondary:amine_secondary,"6-Ethyl-1,4,8,11-tetraazacyclotetradecane",4:7:11,amine_secondary:amine_secondary:amine_secondary,4(amine_secondary) > 7(amine_secondary) > 11(amine_secondary)
CCC1CNCCNCCCNCCNC1,10.02,4:7:11,amine_secondary:amine_secondary:amine_secondary,"6-Ethyl-1,4,8,11-tetraazacyclotetradecane",4:7:11,amine_secondary:amine_secondary:amine_secondary,4(amine_secondary) > 7(amine_secondary) > 11(amine_secondary)
CCC1CNCCNCCCNCCNC1,2.6,4:7:11,amine_secondary:amine_secondary:amine_secondary,"6-Ethyl-1,4,8,11-tetraazacyclotetradecane",4:7:11,amine_secondary:amine_secondary:amine_secondary,4(amine_secondary) > 7(amine_secondary) > 11(amine_secondary)
CCCC1CNCCNCCCNCCNC1,10.52,5:8:12,amine_secondary:amine_secondary:amine_secondary,"6-Propyl-1,4,8,11-tetraazacyclotetradecane",5:8:12,amine_secondary:amine_secondary:amine_secondary,5(amine_secondary) > 8(amine_secondary) > 12(amine_secondary)
CCCC1CNCCNCCCNCCNC1,9.92,5:8:12,amine_secondary:amine_secondary:amine_secondary,"6-Propyl-1,4,8,11-tetraazacyclotetradecane",5:8:12,amine_secondary:amine_secondary:amine_secondary,5(amine_secondary) > 8(amine_secondary) > 12(amine_secondary)
CCCC1CNCCNCCCNCCNC1,3.2,5:8:12,amine_secondary:amine_secondary:amine_secondary,"6-Propyl-1,4,8,11-tetraazacyclotetradecane",5:8:12,amine_secondary:amine_secondary:amine_secondary,5(amine_secondary) > 8(amine_secondary) > 12(amine_secondary)
CCCCC1CNCCNCCCNCCNC1,10.52,6:9:13,amine_secondary:amine_secondary:amine_secondary,"6-Butyl-1,4,8,11-tetraazacyclotetradecane",6:9:13,amine_secondary:amine_secondary:amine_secondary,6(amine_secondary) > 9(amine_secondary) > 13(amine_secondary)
CCCCC1CNCCNCCCNCCNC1,9.88,6:9:13,amine_secondary:amine_secondary:amine_secondary,"6-Butyl-1,4,8,11-tetraazacyclotetradecane",6:9:13,amine_secondary:amine_secondary:amine_secondary,6(amine_secondary) > 9(amine_secondary) > 13(amine_secondary)
CCCCC1CNCCNCCCNCCNC1,2.8,6:9:13,amine_secondary:amine_secondary:amine_secondary,"6-Butyl-1,4,8,11-tetraazacyclotetradecane",6:9:13,amine_secondary:amine_secondary:amine_secondary,6(amine_secondary) > 9(amine_secondary) > 13(amine_secondary)
C1CNCCNCCC(NCCNC1)c2ccccc2,10.7,2:5,amine_secondary:amine_secondary,"5-(Phenyl)-1,4,8,11-tetraazacyclotetradecane",2:5,amine_secondary:amine_secondary,2(amine_secondary) > 5(amine_secondary)
C1CNCCNCCC(NCCNC1)c2ccccc2,10.06,2:5,amine_secondary:amine_secondary,"5-(Phenyl)-1,4,8,11-tetraazacyclotetradecane",2:5,amine_secondary:amine_secondary,2(amine_secondary) > 5(amine_secondary)
C1CNCCNCC(CNCCNC1)Cc2ccccc2,10.51,2:5:9,amine_secondary:amine_secondary:amine_secondary,"6-Benzyl-1,4,8,11-tetraazacyclotetradecane",2:5:9,amine_secondary:amine_secondary:amine_secondary,2(amine_secondary) > 5(amine_secondary) > 9(amine_secondary)
C1CNCCNCC(CNCCNC1)Cc2ccccc2,9.74,2:5:9,amine_secondary:amine_secondary:amine_secondary,"6-Benzyl-1,4,8,11-tetraazacyclotetradecane",2:5:9,amine_secondary:amine_secondary:amine_secondary,2(amine_secondary) > 5(amine_secondary) > 9(amine_secondary)
C1CNCCNCC(CNCCNC1)Cc2ccccc2,2.4,2:5:9,amine_secondary:amine_secondary:amine_secondary,"6-Benzyl-1,4,8,11-tetraazacyclotetradecane",2:5:9,amine_secondary:amine_secondary:amine_secondary,2(amine_secondary) > 5(amine_secondary) > 9(amine_secondary)
CC1(C)NCCCNCCNCCCNC1(C)C,12.2,3:7:10,amine_secondary:amine_secondary:amine_secondary,"2,2,3,3-Tetramethyl-1,4,8,11-tetraazacyclotetradecane",3:7:10,amine_secondary:amine_secondary:amine_secondary,3(amine_secondary) > 7(amine_secondary) > 10(amine_secondary)
CC1(C)NCCCNCCNCCCNC1(C)C,10.19,3:7:10,amine_secondary:amine_secondary:amine_secondary,"2,2,3,3-Tetramethyl-1,4,8,11-tetraazacyclotetradecane",3:7:10,amine_secondary:amine_secondary:amine_secondary,3(amine_secondary) > 7(amine_secondary) > 10(amine_secondary)
CC1(C)NCCCNCCNCCCNC1(C)C,3.7,3:7:10,amine_secondary:amine_secondary:amine_secondary,"2,2,3,3-Tetramethyl-1,4,8,11-tetraazacyclotetradecane",3:7:10,amine_secondary:amine_secondary:amine_secondary,3(amine_secondary) > 7(amine_secondary) > 10(amine_secondary)
FC1CNCCNCCCNCCNC1,10.96,3:6,amine_secondary:amine_secondary,"6-Fluoro-1,4,8,11-tetraazacyclotetradecane",3:6,amine_secondary:amine_secondary,3(amine_secondary) > 6(amine_secondary)
FC1CNCCNCCCNCCNC1,9.41,3:6,amine_secondary:amine_secondary,"6-Fluoro-1,4,8,11-tetraazacyclotetradecane",3:6,amine_secondary:amine_secondary,3(amine_secondary) > 6(amine_secondary)
CC1(F)CNCCNCCCNCCNC1,11.34,4:7,amine_secondary:amine_secondary,"6-Fluoro-6-methyl-1,4,8,11-tetraazacyclotetradecane",4:7,amine_secondary:amine_secondary,4(amine_secondary) > 7(amine_secondary)
CC1(F)CNCCNCCCNCCNC1,9.69,4:7,amine_secondary:amine_secondary,"6-Fluoro-6-methyl-1,4,8,11-tetraazacyclotetradecane",4:7,amine_secondary:amine_secondary,4(amine_secondary) > 7(amine_secondary)
FC1(F)CNCCNCCCNCCNC1,10.78,4:7,amine_secondary:amine_secondary,"6,6-Difluoro-1,4,8,11-tetraazacyclotetradecane",4:7,amine_secondary:amine_secondary,4(amine_secondary) > 7(amine_secondary)
FC1(F)CNCCNCCCNCCNC1,7.52,4:7,amine_secondary:amine_secondary,"6,6-Difluoro-1,4,8,11-tetraazacyclotetradecane",4:7,amine_secondary:amine_secondary,4(amine_secondary) > 7(amine_secondary)
FC1(F)CNCCNCC(F)(F)CNCCNC1,8.22,4:7,amine_secondary:amine_secondary,"6,6,13,13-Tetrafluoro-1,4,8,11-tetraazacyclotetradecane",4:7,amine_secondary:amine_secondary,4(amine_secondary) > 7(amine_secondary)
FC1(F)CNCCNCC(F)(F)CNCCNC1,6.7,4:7,amine_secondary:amine_secondary,"6,6,13,13-Tetrafluoro-1,4,8,11-tetraazacyclotetradecane",4:7,amine_secondary:amine_secondary,4(amine_secondary) > 7(amine_secondary)
NC1CNCCNCCCNCCNC1,11.41,0:3:6,amine_primary:amine_secondary:amine_secondary,"6-Amino-1,4,8,11-tetraazacyclotetradecane",0:3:6,amine_primary:amine_secondary:amine_secondary,0(amine_primary) > 3(amine_secondary) > 6(amine_secondary)
NC1CNCCNCCCNCCNC1,9.94,0:3:6,amine_primary:amine_secondary:amine_secondary,"6-Amino-1,4,8,11-tetraazacyclotetradecane",0:3:6,amine_primary:amine_secondary:amine_secondary,0(amine_primary) > 3(amine_secondary) > 6(amine_secondary)
NC1CNCCNCCCNCCNC1,6.08,0:3:6,amine_primary:amine_secondary:amine_secondary,"6-Amino-1,4,8,11-tetraazacyclotetradecane",0:3:6,amine_primary:amine_secondary:amine_secondary,0(amine_primary) > 3(amine_secondary) > 6(amine_secondary)
C1CCNCCNCCCNCCNCC1,9.81,3:6:10:13,amine_secondary:amine_secondary:amine_secondary:amine_secondary,"1,4,8,11-Tetraazacyclohexadecane",3:6:10:13,amine_secondary:amine_secondary:amine_secondary:amine_secondary,3(amine_secondary) > 6(amine_secondary) > 10(amine_secondary) > 13(amine_secondary)
C1CCNCCNCCCNCCNCC1,9.28,3:6:10:13,amine_secondary:amine_secondary:amine_secondary:amine_secondary,"1,4,8,11-Tetraazacyclohexadecane",3:6:10:13,amine_secondary:amine_secondary:amine_secondary:amine_secondary,3(amine_secondary) > 6(amine_secondary) > 10(amine_secondary) > 13(amine_secondary)
C1CCNCCNCCCNCCNCC1,5.42,3:6:10:13,amine_secondary:amine_secondary:amine_secondary:amine_secondary,"1,4,8,11-Tetraazacyclohexadecane",3:6:10:13,amine_secondary:amine_secondary:amine_secondary:amine_secondary,3(amine_secondary) > 6(amine_secondary) > 10(amine_secondary) > 13(amine_secondary)
C1CCNCCNCCCNCCNCC1,2.9,3:6:10:13,amine_secondary:amine_secondary:amine_secondary:amine_secondary,"1,4,8,11-Tetraazacyclohexadecane",3:6:10:13,amine_secondary:amine_secondary:amine_secondary:amine_secondary,3(amine_secondary) > 6(amine_secondary) > 10(amine_secondary) > 13(amine_secondary)
C1CCNCCCNCCNCCCNC1,9.92,3:7:10:14,amine_secondary:amine_secondary:amine_secondary:amine_secondary,"1,5,8,12-Tetraazacyclohexadecane",3:7:10:14,amine_secondary:amine_secondary:amine_secondary:amine_secondary,3(amine_secondary) > 7(amine_secondary) > 10(amine_secondary) > 14(amine_secondary)
C1CCNCCCNCCNCCCNC1,10.73,3:7:10:14,amine_secondary:amine_secondary:amine_secondary:amine_secondary,"1,5,8,12-Tetraazacyclohexadecane",3:7:10:14,amine_secondary:amine_secondary:amine_secondary:amine_secondary,3(amine_secondary) > 7(amine_secondary) > 10(amine_secondary) > 14(amine_secondary)
C1CCNCCCNCCNCCCNC1,9.57,3:7:10:14,amine_secondary:amine_secondary:amine_secondary:amine_secondary,"1,5,8,12-Tetraazacyclohexadecane",3:7:10:14,amine_secondary:amine_secondary:amine_secondary:amine_secondary,3(amine_secondary) > 7(amine_secondary) > 10(amine_secondary) > 14(amine_secondary)
C1CCNCCCNCCNCCCNC1,9.85,3:7:10:14,amine_secondary:amine_secondary:amine_secondary:amine_secondary,"1,5,8,12-Tetraazacyclohexadecane",3:7:10:14,amine_secondary:amine_secondary:amine_secondary:amine_secondary,3(amine_secondary) > 7(amine_secondary) > 10(amine_secondary) > 14(amine_secondary)
C1CCNCCCNCCNCCCNC1,6.68,3:7:10:14,amine_secondary:amine_secondary:amine_secondary:amine_secondary,"1,5,8,12-Tetraazacyclohexadecane",3:7:10:14,amine_secondary:amine_secondary:amine_secondary:amine_secondary,3(amine_secondary) > 7(amine_secondary) > 10(amine_secondary) > 14(amine_secondary)
C1CCNCCCNCCNCCCNC1,6.83,3:7:10:14,amine_secondary:amine_secondary:amine_secondary:amine_secondary,"1,5,8,12-Tetraazacyclohexadecane",3:7:10:14,amine_secondary:amine_secondary:amine_secondary:amine_secondary,3(amine_secondary) > 7(amine_secondary) > 10(amine_secondary) > 14(amine_secondary)
C1CCNCCCNCCNCCCNC1,3.42,3:7:10:14,amine_secondary:amine_secondary:amine_secondary:amine_secondary,"1,5,8,12-Tetraazacyclohexadecane",3:7:10:14,amine_secondary:amine_secondary:amine_secondary:amine_secondary,3(amine_secondary) > 7(amine_secondary) > 10(amine_secondary) > 14(amine_secondary)
C1CCNCCCNCCNCCCNC1,3.96,3:7:10:14,amine_secondary:amine_secondary:amine_secondary:amine_secondary,"1,5,8,12-Tetraazacyclohexadecane",3:7:10:14,amine_secondary:amine_secondary:amine_secondary:amine_secondary,3(amine_secondary) > 7(amine_secondary) > 10(amine_secondary) > 14(amine_secondary)
C1CCNCCCNCCCNCCCNC1,11.2,3:7:11:15,amine_secondary:amine_secondary:amine_secondary:amine_secondary,"1,5,9,13-Tetraazacycloheptadecane",3:7:11:15,amine_secondary:amine_secondary:amine_secondary:amine_secondary,3(amine_secondary) > 7(amine_secondary) > 11(amine_secondary) > 15(amine_secondary)
C1CCNCCCNCCCNCCCNC1,10.13,3:7:11:15,amine_secondary:amine_secondary:amine_secondary:amine_secondary,"1,5,9,13-Tetraazacycloheptadecane",3:7:11:15,amine_secondary:amine_secondary:amine_secondary:amine_secondary,3(amine_secondary) > 7(amine_secondary) > 11(amine_secondary) > 15(amine_secondary)
C1CCNCCCNCCCNCCCNC1,7.96,3:7:11:15,amine_secondary:amine_secondary:amine_secondary:amine_secondary,"1,5,9,13-Tetraazacycloheptadecane",3:7:11:15,amine_secondary:amine_secondary:amine_secondary:amine_secondary,3(amine_secondary) > 7(amine_secondary) > 11(amine_secondary) > 15(amine_secondary)
C1CCNCCCNCCCNCCCNC1,6.3,3:7:11:15,amine_secondary:amine_secondary:amine_secondary:amine_secondary,"1,5,9,13-Tetraazacycloheptadecane",3:7:11:15,amine_secondary:amine_secondary:amine_secondary:amine_secondary,3(amine_secondary) > 7(amine_secondary) > 11(amine_secondary) > 15(amine_secondary)
C1CCNCCNCCNCCNCCNC1,10.38,3:6:9,amine_secondary:amine_secondary:amine_secondary,"1,4,7,10,13-Pentaazacycloheptadecane",3:6:9,amine_secondary:amine_secondary:amine_secondary,3(amine_secondary) > 6(amine_secondary) > 9(amine_secondary)
C1CCNCCNCCNCCNCCNC1,9.61,3:6:9,amine_secondary:amine_secondary:amine_secondary,"1,4,7,10,13-Pentaazacycloheptadecane",3:6:9,amine_secondary:amine_secondary:amine_secondary,3(amine_secondary) > 6(amine_secondary) > 9(amine_secondary)
C1CCNCCNCCNCCNCCNC1,7.85,3:6:9,amine_secondary:amine_secondary:amine_secondary,"1,4,7,10,13-Pentaazacycloheptadecane",3:6:9,amine_secondary:amine_secondary:amine_secondary,3(amine_secondary) > 6(amine_secondary) > 9(amine_secondary)
C1CCNCCNCCNCCNCCNCC1,10.03,3:6:9,amine_secondary:amine_secondary:amine_secondary,"1,4,7,10,13-Pentaazacyclooctadecane",3:6:9,amine_secondary:amine_secondary:amine_secondary,3(amine_secondary) > 6(amine_secondary) > 9(amine_secondary)
C1CCNCCNCCNCCNCCNCC1,9.4,3:6:9,amine_secondary:amine_secondary:amine_secondary,"1,4,7,10,13-Pentaazacyclooctadecane",3:6:9,amine_secondary:amine_secondary:amine_secondary,3(amine_secondary) > 6(amine_secondary) > 9(amine_secondary)
C1CCNCCNCCNCCNCCNCC1,8.43,3:6:9,amine_secondary:amine_secondary:amine_secondary,"1,4,7,10,13-Pentaazacyclooctadecane",3:6:9,amine_secondary:amine_secondary:amine_secondary,3(amine_secondary) > 6(amine_secondary) > 9(amine_secondary)
C1CCCNCCNCCNCCNCCNCC1,9.99,4:7:10:13,amine_secondary:amine_secondary:amine_secondary:amine_secondary,"1,4,7,10,13-Pentaazacyclononadecane",4:7:10:13,amine_secondary:amine_secondary:amine_secondary:amine_secondary,4(amine_secondary) > 7(amine_secondary) > 10(amine_secondary) > 13(amine_secondary)
C1CCCNCCNCCNCCNCCNCC1,9.4,4:7:10:13,amine_secondary:amine_secondary:amine_secondary:amine_secondary,"1,4,7,10,13-Pentaazacyclononadecane",4:7:10:13,amine_secondary:amine_secondary:amine_secondary:amine_secondary,4(amine_secondary) > 7(amine_secondary) > 10(amine_secondary) > 13(amine_secondary)
C1CCCNCCNCCNCCNCCNCC1,8.39,4:7:10:13,amine_secondary:amine_secondary:amine_secondary:amine_secondary,"1,4,7,10,13-Pentaazacyclononadecane",4:7:10:13,amine_secondary:amine_secondary:amine_secondary:amine_secondary,4(amine_secondary) > 7(amine_secondary) > 10(amine_secondary) > 13(amine_secondary)
C1CCCNCCNCCNCCNCCNCC1,2.4,4:7:10:13,amine_secondary:amine_secondary:amine_secondary:amine_secondary,"1,4,7,10,13-Pentaazacyclononadecane",4:7:10:13,amine_secondary:amine_secondary:amine_secondary:amine_secondary,4(amine_secondary) > 7(amine_secondary) > 10(amine_secondary) > 13(amine_secondary)
C1CNCCNCCCNCCNCCNC1,10.2,2:5:9:12:15,amine_secondary:amine_secondary:amine_secondary:amine_secondary:amine_secondary,"1,4,7,11,14-Pentaazacycloheptadecane",2:5:9:12:15,amine_secondary:amine_secondary:amine_secondary:amine_secondary:amine_secondary,2(amine_secondary) > 5(amine_secondary) > 9(amine_secondary) > 12(amine_secondary) > 15(amine_secondary)
C1CNCCNCCCNCCNCCNC1,9.5,2:5:9:12:15,amine_secondary:amine_secondary:amine_secondary:amine_secondary:amine_secondary,"1,4,7,11,14-Pentaazacycloheptadecane",2:5:9:12:15,amine_secondary:amine_secondary:amine_secondary:amine_secondary:amine_secondary,2(amine_secondary) > 5(amine_secondary) > 9(amine_secondary) > 12(amine_secondary) > 15(amine_secondary)
C1CNCCNCCCNCCNCCNC1,7.24,2:5:9:12:15,amine_secondary:amine_secondary:amine_secondary:amine_secondary:amine_secondary,"1,4,7,11,14-Pentaazacycloheptadecane",2:5:9:12:15,amine_secondary:amine_secondary:amine_secondary:amine_secondary:amine_secondary,2(amine_secondary) > 5(amine_secondary) > 9(amine_secondary) > 12(amine_secondary) > 15(amine_secondary)
C1CNCCNCCCNCCNCCNC1,3.98,2:5:9:12:15,amine_secondary:amine_secondary:amine_secondary:amine_secondary:amine_secondary,"1,4,7,11,14-Pentaazacycloheptadecane",2:5:9:12:15,amine_secondary:amine_secondary:amine_secondary:amine_secondary:amine_secondary,2(amine_secondary) > 5(amine_secondary) > 9(amine_secondary) > 12(amine_secondary) > 15(amine_secondary)
C1CNCCNCCCNCCNCCNC1,2.26,2:5:9:12:15,amine_secondary:amine_secondary:amine_secondary:amine_secondary:amine_secondary,"1,4,7,11,14-Pentaazacycloheptadecane",2:5:9:12:15,amine_secondary:amine_secondary:amine_secondary:amine_secondary:amine_secondary,2(amine_secondary) > 5(amine_secondary) > 9(amine_secondary) > 12(amine_secondary) > 15(amine_secondary)
CN1CCNCCNCCN(C)CCNCCNCC1,9.78,4:7:14:17,amine_secondary:amine_secondary:amine_secondary:amine_secondary,"1,10-Dimethyl-1,4,7,10,13,16-hexaazacyclooctadecane",4:7:14:17,amine_secondary:amine_secondary:amine_secondary:amine_secondary,4(amine_secondary) > 7(amine_secondary) > 14(amine_secondary) > 17(amine_secondary)
CN1CCNCCNCCN(C)CCNCCNCC1,9.09,4:7:14:17,amine_secondary:amine_secondary:amine_secondary:amine_secondary,"1,10-Dimethyl-1,4,7,10,13,16-hexaazacyclooctadecane",4:7:14:17,amine_secondary:amine_secondary:amine_secondary:amine_secondary,4(amine_secondary) > 7(amine_secondary) > 14(amine_secondary) > 17(amine_secondary)
CN1CCNCCNCCN(C)CCNCCNCC1,7.76,4:7:14:17,amine_secondary:amine_secondary:amine_secondary:amine_secondary,"1,10-Dimethyl-1,4,7,10,13,16-hexaazacyclooctadecane",4:7:14:17,amine_secondary:amine_secondary:amine_secondary:amine_secondary,4(amine_secondary) > 7(amine_secondary) > 14(amine_secondary) > 17(amine_secondary)
CN1CCNCCNCCN(C)CCNCCNCC1,3.84,4:7:14:17,amine_secondary:amine_secondary:amine_secondary:amine_secondary,"1,10-Dimethyl-1,4,7,10,13,16-hexaazacyclooctadecane",4:7:14:17,amine_secondary:amine_secondary:amine_secondary:amine_secondary,4(amine_secondary) > 7(amine_secondary) > 14(amine_secondary) > 17(amine_secondary)
C1CCNCCNCCNCCCCNCCNCCNC1,10.64,3:6:9:14:17:20,amine_secondary:amine_secondary:amine_secondary:amine_secondary:amine_secondary:amine_secondary,"1,4,7,12,15,18-Hexaazacyclodocosane",3:6:9:14:17:20,amine_secondary:amine_secondary:amine_secondary:amine_secondary:amine_secondary:amine_secondary,3(amine_secondary) > 6(amine_secondary) > 9(amine_secondary) > 14(amine_secondary) > 17(amine_secondary) > 20(amine_secondary)
C1CCNCCNCCNCCCCNCCNCCNC1,10.12,3:6:9:14:17:20,amine_secondary:amine_secondary:amine_secondary:amine_secondary:amine_secondary:amine_secondary,"1,4,7,12,15,18-Hexaazacyclodocosane",3:6:9:14:17:20,amine_secondary:amine_secondary:amine_secondary:amine_secondary:amine_secondary:amine_secondary,3(amine_secondary) > 6(amine_secondary) > 9(amine_secondary) > 14(amine_secondary) > 17(amine_secondary) > 20(amine_secondary)
C1CCNCCNCCNCCCCNCCNCCNC1,9.37,3:6:9:14:17:20,amine_secondary:amine_secondary:amine_secondary:amine_secondary:amine_secondary:amine_secondary,"1,4,7,12,15,18-Hexaazacyclodocosane",3:6:9:14:17:20,amine_secondary:amine_secondary:amine_secondary:amine_secondary:amine_secondary:amine_secondary,3(amine_secondary) > 6(amine_secondary) > 9(amine_secondary) > 14(amine_secondary) > 17(amine_secondary) > 20(amine_secondary)
C1CCNCCNCCNCCCCNCCNCCNC1,8.86,3:6:9:14:17:20,amine_secondary:amine_secondary:amine_secondary:amine_secondary:amine_secondary:amine_secondary,"1,4,7,12,15,18-Hexaazacyclodocosane",3:6:9:14:17:20,amine_secondary:amine_secondary:amine_secondary:amine_secondary:amine_secondary:amine_secondary,3(amine_secondary) > 6(amine_secondary) > 9(amine_secondary) > 14(amine_secondary) > 17(amine_secondary) > 20(amine_secondary)