SMILES,pKa,Dissociable_Atoms,Functional_Group,Name,Dissociable_Atoms_Ordered,Functional_Group_Ordered,Dissociation_Order
O[C@@H]([C@H](O)C(O)=O)C(O)=O,3.69,5:8,carboxylic_acid:carboxylic_acid,"D-2,3-Dihydroxybutanedioic acid (D-Tartaric acid)",5:8,carboxylic_acid:carboxylic_acid,5(carboxylic_acid) > 8(carboxylic_acid)
O[C@@H]([C@H](O)C(O)=O)C(O)=O,3.81,5:8,carboxylic_acid:carboxylic_acid,"D-2,3-Dihydroxybutanedioic acid (D-Tartaric acid)",5:8,carboxylic_acid:carboxylic_acid,5(carboxylic_acid) > 8(carboxylic_acid)
O[C@@H]([C@H](O)C(O)=O)C(O)=O,3.93,5:8,carboxylic_acid:carboxylic_acid,"D-2,3-Dihydroxybutanedioic acid (D-Tartaric acid)",5:8,carboxylic_acid:carboxylic_acid,5(carboxylic_acid) > 8(carboxylic_acid)
O[C@@H]([C@H](O)C(O)=O)C(O)=O,4.366,5:8,carboxylic_acid:carboxylic_acid,"D-2,3-Dihydroxybutanedioic acid (D-Tartaric acid)",5:8,carboxylic_acid:carboxylic_acid,5(carboxylic_acid) > 8(carboxylic_acid)
O[C@@H]([C@H](O)C(O)=O)C(O)=O,2.82,5:8,carboxylic_acid:carboxylic_acid,"D-2,3-Dihydroxybutanedioic acid (D-Tartaric acid)",5:8,carboxylic_acid:carboxylic_acid,5(carboxylic_acid) > 8(carboxylic_acid)
O[C@@H]([C@H](O)C(O)=O)C(O)=O,2.83,5:8,carboxylic_acid:carboxylic_acid,"D-2,3-Dihydroxybutanedioic acid (D-Tartaric acid)",5:8,carboxylic_acid:carboxylic_acid,5(carboxylic_acid) > 8(carboxylic_acid)
O[C@@H]([C@H](O)C(O)=O)C(O)=O,2.68,5:8,carboxylic_acid:carboxylic_acid,"D-2,3-Dihydroxybutanedioic acid (D-Tartaric acid)",5:8,carboxylic_acid:carboxylic_acid,5(carboxylic_acid) > 8(carboxylic_acid)
O[C@@H]([C@H](O)C(O)=O)C(O)=O,2.74,5:8,carboxylic_acid:carboxylic_acid,"D-2,3-Dihydroxybutanedioic acid (D-Tartaric acid)",5:8,carboxylic_acid:carboxylic_acid,5(carboxylic_acid) > 8(carboxylic_acid)
O[C@@H]([C@H](O)C(O)=O)C(O)=O,2.98,5:8,carboxylic_acid:carboxylic_acid,"D-2,3-Dihydroxybutanedioic acid (D-Tartaric acid)",5:8,carboxylic_acid:carboxylic_acid,5(carboxylic_acid) > 8(carboxylic_acid)
O[C@@H]([C@H](O)C(O)=O)C(O)=O,3.036,5:8,carboxylic_acid:carboxylic_acid,"D-2,3-Dihydroxybutanedioic acid (D-Tartaric acid)",5:8,carboxylic_acid:carboxylic_acid,5(carboxylic_acid) > 8(carboxylic_acid)
OC(C(O)C(O)=O)C(O)=O,4.49,5:8,carboxylic_acid:carboxylic_acid,"meso-2,3-Dihydroxybutanedioic acid (meso-Tartaric acid)",5:8,carboxylic_acid:carboxylic_acid,5(carboxylic_acid) > 8(carboxylic_acid)
OC(C(O)C(O)=O)C(O)=O,4.11,5:8,carboxylic_acid:carboxylic_acid,"meso-2,3-Dihydroxybutanedioic acid (meso-Tartaric acid)",5:8,carboxylic_acid:carboxylic_acid,5(carboxylic_acid) > 8(carboxylic_acid)
OC(C(O)C(O)=O)C(O)=O,4.91,5:8,carboxylic_acid:carboxylic_acid,"meso-2,3-Dihydroxybutanedioic acid (meso-Tartaric acid)",5:8,carboxylic_acid:carboxylic_acid,5(carboxylic_acid) > 8(carboxylic_acid)
OC(C(O)C(O)=O)C(O)=O,2.97,5:8,carboxylic_acid:carboxylic_acid,"meso-2,3-Dihydroxybutanedioic acid (meso-Tartaric acid)",5:8,carboxylic_acid:carboxylic_acid,5(carboxylic_acid) > 8(carboxylic_acid)
OC(C(O)C(O)=O)C(O)=O,2.87,5:8,carboxylic_acid:carboxylic_acid,"meso-2,3-Dihydroxybutanedioic acid (meso-Tartaric acid)",5:8,carboxylic_acid:carboxylic_acid,5(carboxylic_acid) > 8(carboxylic_acid)
OC(C(O)C(O)=O)C(O)=O,3.17,5:8,carboxylic_acid:carboxylic_acid,"meso-2,3-Dihydroxybutanedioic acid (meso-Tartaric acid)",5:8,carboxylic_acid:carboxylic_acid,5(carboxylic_acid) > 8(carboxylic_acid)
O[C@@H]([C@H](O)[C@H](O)C(O)=O)[C@@H](O)C(O)=O,3.97,7:12,carboxylic_acid:carboxylic_acid,"D-2,3,4,5-Tetrahydroxyhexanedioic acid (D-Saccharic acid) (D-Glucaric acid)",7:12,carboxylic_acid:carboxylic_acid,7(carboxylic_acid) > 12(carboxylic_acid)
O[C@@H]([C@H](O)[C@H](O)C(O)=O)[C@@H](O)C(O)=O,3.17,7:12,carboxylic_acid:carboxylic_acid,"D-2,3,4,5-Tetrahydroxyhexanedioic acid (D-Saccharic acid) (D-Glucaric acid)",7:12,carboxylic_acid:carboxylic_acid,7(carboxylic_acid) > 12(carboxylic_acid)
OC(C(O)C(O)C(O)=O)C(O)C(O)=O,3.86,7:12,carboxylic_acid:carboxylic_acid,"2,3,4,5-Tetrahydroxyhexanedioic acid (Galactaric acid)(Mucic acid)",7:12,carboxylic_acid:carboxylic_acid,7(carboxylic_acid) > 12(carboxylic_acid)
OC(C(O)C(O)C(O)=O)C(O)C(O)=O,3.63,7:12,carboxylic_acid:carboxylic_acid,"2,3,4,5-Tetrahydroxyhexanedioic acid (Galactaric acid)(Mucic acid)",7:12,carboxylic_acid:carboxylic_acid,7(carboxylic_acid) > 12(carboxylic_acid)
OC(C(O)C(O)C(O)=O)C(O)C(O)=O,3.16,7:12,carboxylic_acid:carboxylic_acid,"2,3,4,5-Tetrahydroxyhexanedioic acid (Galactaric acid)(Mucic acid)",7:12,carboxylic_acid:carboxylic_acid,7(carboxylic_acid) > 12(carboxylic_acid)
OC(C(O)C(O)C(O)=O)C(O)C(O)=O,3.08,7:12,carboxylic_acid:carboxylic_acid,"2,3,4,5-Tetrahydroxyhexanedioic acid (Galactaric acid)(Mucic acid)",7:12,carboxylic_acid:carboxylic_acid,7(carboxylic_acid) > 12(carboxylic_acid)
OC(=O)CC(CC(O)=O)C(O)=O,5.85,0:7:10,carboxylic_acid:carboxylic_acid:carboxylic_acid,"Propane-1,2,3-tricarboxylic acid (Tricarballylic acid)",0:7:10,carboxylic_acid:carboxylic_acid:carboxylic_acid,0(carboxylic_acid) > 7(carboxylic_acid) > 10(carboxylic_acid)
OC(=O)CC(CC(O)=O)C(O)=O,5.55,0:7:10,carboxylic_acid:carboxylic_acid:carboxylic_acid,"Propane-1,2,3-tricarboxylic acid (Tricarballylic acid)",0:7:10,carboxylic_acid:carboxylic_acid:carboxylic_acid,0(carboxylic_acid) > 7(carboxylic_acid) > 10(carboxylic_acid)
OC(=O)CC(CC(O)=O)C(O)=O,5.48,0:7:10,carboxylic_acid:carboxylic_acid:carboxylic_acid,"Propane-1,2,3-tricarboxylic acid (Tricarballylic acid)",0:7:10,carboxylic_acid:carboxylic_acid:carboxylic_acid,0(carboxylic_acid) > 7(carboxylic_acid) > 10(carboxylic_acid)
OC(=O)CC(CC(O)=O)C(O)=O,5.42,0:7:10,carboxylic_acid:carboxylic_acid:carboxylic_acid,"Propane-1,2,3-tricarboxylic acid (Tricarballylic acid)",0:7:10,carboxylic_acid:carboxylic_acid:carboxylic_acid,0(carboxylic_acid) > 7(carboxylic_acid) > 10(carboxylic_acid)
OC(=O)CC(CC(O)=O)C(O)=O,5.49,0:7:10,carboxylic_acid:carboxylic_acid:carboxylic_acid,"Propane-1,2,3-tricarboxylic acid (Tricarballylic acid)",0:7:10,carboxylic_acid:carboxylic_acid:carboxylic_acid,0(carboxylic_acid) > 7(carboxylic_acid) > 10(carboxylic_acid)
OC(=O)CC(CC(O)=O)C(O)=O,5.57,0:7:10,carboxylic_acid:carboxylic_acid:carboxylic_acid,"Propane-1,2,3-tricarboxylic acid (Tricarballylic acid)",0:7:10,carboxylic_acid:carboxylic_acid:carboxylic_acid,0(carboxylic_acid) > 7(carboxylic_acid) > 10(carboxylic_acid)
OC(=O)CC(CC(O)=O)C(O)=O,6.44,0:7:10,carboxylic_acid:carboxylic_acid:carboxylic_acid,"Propane-1,2,3-tricarboxylic acid (Tricarballylic acid)",0:7:10,carboxylic_acid:carboxylic_acid:carboxylic_acid,0(carboxylic_acid) > 7(carboxylic_acid) > 10(carboxylic_acid)
OC(=O)CC(CC(O)=O)C(O)=O,4.51,0:7:10,carboxylic_acid:carboxylic_acid:carboxylic_acid,"Propane-1,2,3-tricarboxylic acid (Tricarballylic acid)",0:7:10,carboxylic_acid:carboxylic_acid:carboxylic_acid,0(carboxylic_acid) > 7(carboxylic_acid) > 10(carboxylic_acid)
OC(=O)CC(CC(O)=O)C(O)=O,4.33,0:7:10,carboxylic_acid:carboxylic_acid:carboxylic_acid,"Propane-1,2,3-tricarboxylic acid (Tricarballylic acid)",0:7:10,carboxylic_acid:carboxylic_acid:carboxylic_acid,0(carboxylic_acid) > 7(carboxylic_acid) > 10(carboxylic_acid)
OC(=O)CC(CC(O)=O)C(O)=O,4.39,0:7:10,carboxylic_acid:carboxylic_acid:carboxylic_acid,"Propane-1,2,3-tricarboxylic acid (Tricarballylic acid)",0:7:10,carboxylic_acid:carboxylic_acid:carboxylic_acid,0(carboxylic_acid) > 7(carboxylic_acid) > 10(carboxylic_acid)
OC(=O)CC(CC(O)=O)C(O)=O,4.35,0:7:10,carboxylic_acid:carboxylic_acid:carboxylic_acid,"Propane-1,2,3-tricarboxylic acid (Tricarballylic acid)",0:7:10,carboxylic_acid:carboxylic_acid:carboxylic_acid,0(carboxylic_acid) > 7(carboxylic_acid) > 10(carboxylic_acid)
OC(=O)CC(CC(O)=O)C(O)=O,4.55,0:7:10,carboxylic_acid:carboxylic_acid:carboxylic_acid,"Propane-1,2,3-tricarboxylic acid (Tricarballylic acid)",0:7:10,carboxylic_acid:carboxylic_acid:carboxylic_acid,0(carboxylic_acid) > 7(carboxylic_acid) > 10(carboxylic_acid)
OC(=O)CC(CC(O)=O)C(O)=O,4.47,0:7:10,carboxylic_acid:carboxylic_acid:carboxylic_acid,"Propane-1,2,3-tricarboxylic acid (Tricarballylic acid)",0:7:10,carboxylic_acid:carboxylic_acid:carboxylic_acid,0(carboxylic_acid) > 7(carboxylic_acid) > 10(carboxylic_acid)
OC(=O)CC(CC(O)=O)C(O)=O,4.9,0:7:10,carboxylic_acid:carboxylic_acid:carboxylic_acid,"Propane-1,2,3-tricarboxylic acid (Tricarballylic acid)",0:7:10,carboxylic_acid:carboxylic_acid:carboxylic_acid,0(carboxylic_acid) > 7(carboxylic_acid) > 10(carboxylic_acid)
OC(=O)CC(CC(O)=O)C(O)=O,3.47,0:7:10,carboxylic_acid:carboxylic_acid:carboxylic_acid,"Propane-1,2,3-tricarboxylic acid (Tricarballylic acid)",0:7:10,carboxylic_acid:carboxylic_acid:carboxylic_acid,0(carboxylic_acid) > 7(carboxylic_acid) > 10(carboxylic_acid)
OC(=O)CC(CC(O)=O)C(O)=O,3.38,0:7:10,carboxylic_acid:carboxylic_acid:carboxylic_acid,"Propane-1,2,3-tricarboxylic acid (Tricarballylic acid)",0:7:10,carboxylic_acid:carboxylic_acid:carboxylic_acid,0(carboxylic_acid) > 7(carboxylic_acid) > 10(carboxylic_acid)
OC(=O)CC(CC(O)=O)C(O)=O,3.4,0:7:10,carboxylic_acid:carboxylic_acid:carboxylic_acid,"Propane-1,2,3-tricarboxylic acid (Tricarballylic acid)",0:7:10,carboxylic_acid:carboxylic_acid:carboxylic_acid,0(carboxylic_acid) > 7(carboxylic_acid) > 10(carboxylic_acid)
OC(=O)CC(CC(O)=O)C(O)=O,3.44,0:7:10,carboxylic_acid:carboxylic_acid:carboxylic_acid,"Propane-1,2,3-tricarboxylic acid (Tricarballylic acid)",0:7:10,carboxylic_acid:carboxylic_acid:carboxylic_acid,0(carboxylic_acid) > 7(carboxylic_acid) > 10(carboxylic_acid)
OC(=O)CC(CC(O)=O)C(O)=O,3.45,0:7:10,carboxylic_acid:carboxylic_acid:carboxylic_acid,"Propane-1,2,3-tricarboxylic acid (Tricarballylic acid)",0:7:10,carboxylic_acid:carboxylic_acid:carboxylic_acid,0(carboxylic_acid) > 7(carboxylic_acid) > 10(carboxylic_acid)
OC(=O)CC(CC(O)=O)C(O)=O,3.53,0:7:10,carboxylic_acid:carboxylic_acid:carboxylic_acid,"Propane-1,2,3-tricarboxylic acid (Tricarballylic acid)",0:7:10,carboxylic_acid:carboxylic_acid:carboxylic_acid,0(carboxylic_acid) > 7(carboxylic_acid) > 10(carboxylic_acid)
OC(=O)CC(CC(O)=O)C(O)=O,3.67,0:7:10,carboxylic_acid:carboxylic_acid:carboxylic_acid,"Propane-1,2,3-tricarboxylic acid (Tricarballylic acid)",0:7:10,carboxylic_acid:carboxylic_acid:carboxylic_acid,0(carboxylic_acid) > 7(carboxylic_acid) > 10(carboxylic_acid)
OC(=O)CC(CC(O)=O)CC(O)=O,4.81,0:7:11,carboxylic_acid:carboxylic_acid:carboxylic_acid,3-(Carboxymethyl)pentanedioic acid,0:7:11,carboxylic_acid:carboxylic_acid:carboxylic_acid,0(carboxylic_acid) > 7(carboxylic_acid) > 11(carboxylic_acid)
OC(=O)CC(CC(O)=O)CC(O)=O,4.1,0:7:11,carboxylic_acid:carboxylic_acid:carboxylic_acid,3-(Carboxymethyl)pentanedioic acid,0:7:11,carboxylic_acid:carboxylic_acid:carboxylic_acid,0(carboxylic_acid) > 7(carboxylic_acid) > 11(carboxylic_acid)
OC(=O)CC(CC(O)=O)CC(O)=O,3.3,0:7:11,carboxylic_acid:carboxylic_acid:carboxylic_acid,3-(Carboxymethyl)pentanedioic acid,0:7:11,carboxylic_acid:carboxylic_acid:carboxylic_acid,0(carboxylic_acid) > 7(carboxylic_acid) > 11(carboxylic_acid)
OC(=O)C\C(=C/C(O)=O)C(O)=O,5.71,0:7:10,carboxylic_acid:carboxylic_acid:carboxylic_acid,"cis-Propene-1,2,3-tricarboxylic acid (cis-Aconitic acid)",0:7:10,carboxylic_acid:carboxylic_acid:carboxylic_acid,0(carboxylic_acid) > 7(carboxylic_acid) > 10(carboxylic_acid)
OC(=O)C\C(=C/C(O)=O)C(O)=O,3.97,0:7:10,carboxylic_acid:carboxylic_acid:carboxylic_acid,"cis-Propene-1,2,3-tricarboxylic acid (cis-Aconitic acid)",0:7:10,carboxylic_acid:carboxylic_acid:carboxylic_acid,0(carboxylic_acid) > 7(carboxylic_acid) > 10(carboxylic_acid)
OC(=O)C\C(=C/C(O)=O)C(O)=O,2.62,0:7:10,carboxylic_acid:carboxylic_acid:carboxylic_acid,"cis-Propene-1,2,3-tricarboxylic acid (cis-Aconitic acid)",0:7:10,carboxylic_acid:carboxylic_acid:carboxylic_acid,0(carboxylic_acid) > 7(carboxylic_acid) > 10(carboxylic_acid)
OC(=O)c1cccc(C(O)=O)c1C(O)=O,5.5,0:9:13,carboxylic_acid:carboxylic_acid:carboxylic_acid,"Benzene-1,2,3-tricarboxylic acid (Hemimellitic acid)",0:9:13,carboxylic_acid:carboxylic_acid:carboxylic_acid,0(carboxylic_acid) > 9(carboxylic_acid) > 13(carboxylic_acid)
OC(=O)c1cccc(C(O)=O)c1C(O)=O,5.77,0:9:13,carboxylic_acid:carboxylic_acid:carboxylic_acid,"Benzene-1,2,3-tricarboxylic acid (Hemimellitic acid)",0:9:13,carboxylic_acid:carboxylic_acid:carboxylic_acid,0(carboxylic_acid) > 9(carboxylic_acid) > 13(carboxylic_acid)
OC(=O)c1cccc(C(O)=O)c1C(O)=O,4.82,0:9:13,carboxylic_acid:carboxylic_acid:carboxylic_acid,"Benzene-1,2,3-tricarboxylic acid (Hemimellitic acid)",0:9:13,carboxylic_acid:carboxylic_acid:carboxylic_acid,0(carboxylic_acid) > 9(carboxylic_acid) > 13(carboxylic_acid)
OC(=O)c1cccc(C(O)=O)c1C(O)=O,5.0,0:9:13,carboxylic_acid:carboxylic_acid:carboxylic_acid,"Benzene-1,2,3-tricarboxylic acid (Hemimellitic acid)",0:9:13,carboxylic_acid:carboxylic_acid:carboxylic_acid,0(carboxylic_acid) > 9(carboxylic_acid) > 13(carboxylic_acid)
OC(=O)c1cccc(C(O)=O)c1C(O)=O,6.26,0:9:13,carboxylic_acid:carboxylic_acid:carboxylic_acid,"Benzene-1,2,3-tricarboxylic acid (Hemimellitic acid)",0:9:13,carboxylic_acid:carboxylic_acid:carboxylic_acid,0(carboxylic_acid) > 9(carboxylic_acid) > 13(carboxylic_acid)
OC(=O)c1cccc(C(O)=O)c1C(O)=O,3.86,0:9:13,carboxylic_acid:carboxylic_acid:carboxylic_acid,"Benzene-1,2,3-tricarboxylic acid (Hemimellitic acid)",0:9:13,carboxylic_acid:carboxylic_acid:carboxylic_acid,0(carboxylic_acid) > 9(carboxylic_acid) > 13(carboxylic_acid)
OC(=O)c1cccc(C(O)=O)c1C(O)=O,4.0,0:9:13,carboxylic_acid:carboxylic_acid:carboxylic_acid,"Benzene-1,2,3-tricarboxylic acid (Hemimellitic acid)",0:9:13,carboxylic_acid:carboxylic_acid:carboxylic_acid,0(carboxylic_acid) > 9(carboxylic_acid) > 13(carboxylic_acid)
OC(=O)c1cccc(C(O)=O)c1C(O)=O,3.58,0:9:13,carboxylic_acid:carboxylic_acid:carboxylic_acid,"Benzene-1,2,3-tricarboxylic acid (Hemimellitic acid)",0:9:13,carboxylic_acid:carboxylic_acid:carboxylic_acid,0(carboxylic_acid) > 9(carboxylic_acid) > 13(carboxylic_acid)
OC(=O)c1cccc(C(O)=O)c1C(O)=O,3.74,0:9:13,carboxylic_acid:carboxylic_acid:carboxylic_acid,"Benzene-1,2,3-tricarboxylic acid (Hemimellitic acid)",0:9:13,carboxylic_acid:carboxylic_acid:carboxylic_acid,0(carboxylic_acid) > 9(carboxylic_acid) > 13(carboxylic_acid)
OC(=O)c1cccc(C(O)=O)c1C(O)=O,4.28,0:9:13,carboxylic_acid:carboxylic_acid:carboxylic_acid,"Benzene-1,2,3-tricarboxylic acid (Hemimellitic acid)",0:9:13,carboxylic_acid:carboxylic_acid:carboxylic_acid,0(carboxylic_acid) > 9(carboxylic_acid) > 13(carboxylic_acid)
OC(=O)c1cccc(C(O)=O)c1C(O)=O,2.62,0:9:13,carboxylic_acid:carboxylic_acid:carboxylic_acid,"Benzene-1,2,3-tricarboxylic acid (Hemimellitic acid)",0:9:13,carboxylic_acid:carboxylic_acid:carboxylic_acid,0(carboxylic_acid) > 9(carboxylic_acid) > 13(carboxylic_acid)
OC(=O)c1cccc(C(O)=O)c1C(O)=O,2.71,0:9:13,carboxylic_acid:carboxylic_acid:carboxylic_acid,"Benzene-1,2,3-tricarboxylic acid (Hemimellitic acid)",0:9:13,carboxylic_acid:carboxylic_acid:carboxylic_acid,0(carboxylic_acid) > 9(carboxylic_acid) > 13(carboxylic_acid)
OC(=O)c1cccc(C(O)=O)c1C(O)=O,2.48,0:9:13,carboxylic_acid:carboxylic_acid:carboxylic_acid,"Benzene-1,2,3-tricarboxylic acid (Hemimellitic acid)",0:9:13,carboxylic_acid:carboxylic_acid:carboxylic_acid,0(carboxylic_acid) > 9(carboxylic_acid) > 13(carboxylic_acid)
OC(=O)c1cccc(C(O)=O)c1C(O)=O,2.57,0:9:13,carboxylic_acid:carboxylic_acid:carboxylic_acid,"Benzene-1,2,3-tricarboxylic acid (Hemimellitic acid)",0:9:13,carboxylic_acid:carboxylic_acid:carboxylic_acid,0(carboxylic_acid) > 9(carboxylic_acid) > 13(carboxylic_acid)
OC(=O)c1cccc(C(O)=O)c1C(O)=O,2.83,0:9:13,carboxylic_acid:carboxylic_acid:carboxylic_acid,"Benzene-1,2,3-tricarboxylic acid (Hemimellitic acid)",0:9:13,carboxylic_acid:carboxylic_acid:carboxylic_acid,0(carboxylic_acid) > 9(carboxylic_acid) > 13(carboxylic_acid)
OC(=O)c1ccc(C(O)=O)c(c1)C(O)=O,5.01,0:8:13,carboxylic_acid:carboxylic_acid:carboxylic_acid,"Benzene-1,2,4-tricarboxylic acid (Trimellitic acid)",0:8:13,carboxylic_acid:carboxylic_acid:carboxylic_acid,0(carboxylic_acid) > 8(carboxylic_acid) > 13(carboxylic_acid)
OC(=O)c1ccc(C(O)=O)c(c1)C(O)=O,4.57,0:8:13,carboxylic_acid:carboxylic_acid:carboxylic_acid,"Benzene-1,2,4-tricarboxylic acid (Trimellitic acid)",0:8:13,carboxylic_acid:carboxylic_acid:carboxylic_acid,0(carboxylic_acid) > 8(carboxylic_acid) > 13(carboxylic_acid)
OC(=O)c1ccc(C(O)=O)c(c1)C(O)=O,5.54,0:8:13,carboxylic_acid:carboxylic_acid:carboxylic_acid,"Benzene-1,2,4-tricarboxylic acid (Trimellitic acid)",0:8:13,carboxylic_acid:carboxylic_acid:carboxylic_acid,0(carboxylic_acid) > 8(carboxylic_acid) > 13(carboxylic_acid)
OC(=O)c1ccc(C(O)=O)c(c1)C(O)=O,3.71,0:8:13,carboxylic_acid:carboxylic_acid:carboxylic_acid,"Benzene-1,2,4-tricarboxylic acid (Trimellitic acid)",0:8:13,carboxylic_acid:carboxylic_acid:carboxylic_acid,0(carboxylic_acid) > 8(carboxylic_acid) > 13(carboxylic_acid)
OC(=O)c1ccc(C(O)=O)c(c1)C(O)=O,3.55,0:8:13,carboxylic_acid:carboxylic_acid:carboxylic_acid,"Benzene-1,2,4-tricarboxylic acid (Trimellitic acid)",0:8:13,carboxylic_acid:carboxylic_acid:carboxylic_acid,0(carboxylic_acid) > 8(carboxylic_acid) > 13(carboxylic_acid)
OC(=O)c1ccc(C(O)=O)c(c1)C(O)=O,4.04,0:8:13,carboxylic_acid:carboxylic_acid:carboxylic_acid,"Benzene-1,2,4-tricarboxylic acid (Trimellitic acid)",0:8:13,carboxylic_acid:carboxylic_acid:carboxylic_acid,0(carboxylic_acid) > 8(carboxylic_acid) > 13(carboxylic_acid)
OC(=O)c1ccc(C(O)=O)c(c1)C(O)=O,2.42,0:8:13,carboxylic_acid:carboxylic_acid:carboxylic_acid,"Benzene-1,2,4-tricarboxylic acid (Trimellitic acid)",0:8:13,carboxylic_acid:carboxylic_acid:carboxylic_acid,0(carboxylic_acid) > 8(carboxylic_acid) > 13(carboxylic_acid)
OC(=O)c1ccc(C(O)=O)c(c1)C(O)=O,2.32,0:8:13,carboxylic_acid:carboxylic_acid:carboxylic_acid,"Benzene-1,2,4-tricarboxylic acid (Trimellitic acid)",0:8:13,carboxylic_acid:carboxylic_acid:carboxylic_acid,0(carboxylic_acid) > 8(carboxylic_acid) > 13(carboxylic_acid)
OC(=O)c1ccc(C(O)=O)c(c1)C(O)=O,2.48,0:8:13,carboxylic_acid:carboxylic_acid:carboxylic_acid,"Benzene-1,2,4-tricarboxylic acid (Trimellitic acid)",0:8:13,carboxylic_acid:carboxylic_acid:carboxylic_acid,0(carboxylic_acid) > 8(carboxylic_acid) > 13(carboxylic_acid)
OC(=O)c1cc(cc(c1)C(O)=O)C(O)=O,4.49,0:13:10,carboxylic_acid:carboxylic_acid:carboxylic_acid,"Benzene-1,3,5-tricarboxylic acid (Trimesic acid)",0:13:10,carboxylic_acid:carboxylic_acid:carboxylic_acid,0(carboxylic_acid) > 13(carboxylic_acid) > 10(carboxylic_acid)
OC(=O)c1cc(cc(c1)C(O)=O)C(O)=O,4.22,0:13:10,carboxylic_acid:carboxylic_acid:carboxylic_acid,"Benzene-1,3,5-tricarboxylic acid (Trimesic acid)",0:13:10,carboxylic_acid:carboxylic_acid:carboxylic_acid,0(carboxylic_acid) > 13(carboxylic_acid) > 10(carboxylic_acid)
OC(=O)c1cc(cc(c1)C(O)=O)C(O)=O,5.18,0:13:10,carboxylic_acid:carboxylic_acid:carboxylic_acid,"Benzene-1,3,5-tricarboxylic acid (Trimesic acid)",0:13:10,carboxylic_acid:carboxylic_acid:carboxylic_acid,0(carboxylic_acid) > 13(carboxylic_acid) > 10(carboxylic_acid)
OC(=O)c1cc(cc(c1)C(O)=O)C(O)=O,3.71,0:13:10,carboxylic_acid:carboxylic_acid:carboxylic_acid,"Benzene-1,3,5-tricarboxylic acid (Trimesic acid)",0:13:10,carboxylic_acid:carboxylic_acid:carboxylic_acid,0(carboxylic_acid) > 13(carboxylic_acid) > 10(carboxylic_acid)
OC(=O)c1cc(cc(c1)C(O)=O)C(O)=O,3.57,0:13:10,carboxylic_acid:carboxylic_acid:carboxylic_acid,"Benzene-1,3,5-tricarboxylic acid (Trimesic acid)",0:13:10,carboxylic_acid:carboxylic_acid:carboxylic_acid,0(carboxylic_acid) > 13(carboxylic_acid) > 10(carboxylic_acid)
OC(=O)c1cc(cc(c1)C(O)=O)C(O)=O,4.1,0:13:10,carboxylic_acid:carboxylic_acid:carboxylic_acid,"Benzene-1,3,5-tricarboxylic acid (Trimesic acid)",0:13:10,carboxylic_acid:carboxylic_acid:carboxylic_acid,0(carboxylic_acid) > 13(carboxylic_acid) > 10(carboxylic_acid)
OC(=O)c1cc(cc(c1)C(O)=O)C(O)=O,3.01,0:13:10,carboxylic_acid:carboxylic_acid:carboxylic_acid,"Benzene-1,3,5-tricarboxylic acid (Trimesic acid)",0:13:10,carboxylic_acid:carboxylic_acid:carboxylic_acid,0(carboxylic_acid) > 13(carboxylic_acid) > 10(carboxylic_acid)
OC(=O)c1cc(cc(c1)C(O)=O)C(O)=O,3.0,0:13:10,carboxylic_acid:carboxylic_acid:carboxylic_acid,"Benzene-1,3,5-tricarboxylic acid (Trimesic acid)",0:13:10,carboxylic_acid:carboxylic_acid:carboxylic_acid,0(carboxylic_acid) > 13(carboxylic_acid) > 10(carboxylic_acid)