SMILES,pKa,Dissociable_Atoms,Functional_Group,Name,Dissociable_Atoms_Ordered,Functional_Group_Ordered,Dissociation_Order
C1CCNCCNCCNCCCCNCCNCCNC1,3.44,3:6:9:14:17:20,amine_secondary:amine_secondary:amine_secondary:amine_secondary:amine_secondary:amine_secondary,"1,4,7,12,15,18-Hexaazacyclodocosane",3:6:9:14:17:20,amine_secondary:amine_secondary:amine_secondary:amine_secondary:amine_secondary:amine_secondary,3(amine_secondary) > 6(amine_secondary) > 9(amine_secondary) > 14(amine_secondary) > 17(amine_secondary) > 20(amine_secondary)
C1CCNCCNCCNCCCCNCCNCCNC1,3.42,3:6:9:14:17:20,amine_secondary:amine_secondary:amine_secondary:amine_secondary:amine_secondary:amine_secondary,"1,4,7,12,15,18-Hexaazacyclodocosane",3:6:9:14:17:20,amine_secondary:amine_secondary:amine_secondary:amine_secondary:amine_secondary:amine_secondary,3(amine_secondary) > 6(amine_secondary) > 9(amine_secondary) > 14(amine_secondary) > 17(amine_secondary) > 20(amine_secondary)
C1CNCCCNCCCNCCCNCCCNCCCNC1,10.48,2:6:10:14:18:22,amine_secondary:amine_secondary:amine_secondary:amine_secondary:amine_secondary:amine_secondary,"1,5,9,13,17,21-Hexaazacyclotetracosane",2:6:10:14:18:22,amine_secondary:amine_secondary:amine_secondary:amine_secondary:amine_secondary:amine_secondary,2(amine_secondary) > 6(amine_secondary) > 10(amine_secondary) > 14(amine_secondary) > 18(amine_secondary) > 22(amine_secondary)
C1CNCCCNCCCNCCCNCCCNCCCNC1,10.96,2:6:10:14:18:22,amine_secondary:amine_secondary:amine_secondary:amine_secondary:amine_secondary:amine_secondary,"1,5,9,13,17,21-Hexaazacyclotetracosane",2:6:10:14:18:22,amine_secondary:amine_secondary:amine_secondary:amine_secondary:amine_secondary:amine_secondary,2(amine_secondary) > 6(amine_secondary) > 10(amine_secondary) > 14(amine_secondary) > 18(amine_secondary) > 22(amine_secondary)
C1CNCCCNCCCNCCCNCCCNCCCNC1,10.28,2:6:10:14:18:22,amine_secondary:amine_secondary:amine_secondary:amine_secondary:amine_secondary:amine_secondary,"1,5,9,13,17,21-Hexaazacyclotetracosane",2:6:10:14:18:22,amine_secondary:amine_secondary:amine_secondary:amine_secondary:amine_secondary:amine_secondary,2(amine_secondary) > 6(amine_secondary) > 10(amine_secondary) > 14(amine_secondary) > 18(amine_secondary) > 22(amine_secondary)
C1CNCCCNCCCNCCCNCCCNCCCNC1,10.32,2:6:10:14:18:22,amine_secondary:amine_secondary:amine_secondary:amine_secondary:amine_secondary:amine_secondary,"1,5,9,13,17,21-Hexaazacyclotetracosane",2:6:10:14:18:22,amine_secondary:amine_secondary:amine_secondary:amine_secondary:amine_secondary:amine_secondary,2(amine_secondary) > 6(amine_secondary) > 10(amine_secondary) > 14(amine_secondary) > 18(amine_secondary) > 22(amine_secondary)
C1CNCCCNCCCNCCCNCCCNCCCNC1,9.15,2:6:10:14:18:22,amine_secondary:amine_secondary:amine_secondary:amine_secondary:amine_secondary:amine_secondary,"1,5,9,13,17,21-Hexaazacyclotetracosane",2:6:10:14:18:22,amine_secondary:amine_secondary:amine_secondary:amine_secondary:amine_secondary:amine_secondary,2(amine_secondary) > 6(amine_secondary) > 10(amine_secondary) > 14(amine_secondary) > 18(amine_secondary) > 22(amine_secondary)
C1CNCCCNCCCNCCCNCCCNCCCNC1,9.61,2:6:10:14:18:22,amine_secondary:amine_secondary:amine_secondary:amine_secondary:amine_secondary:amine_secondary,"1,5,9,13,17,21-Hexaazacyclotetracosane",2:6:10:14:18:22,amine_secondary:amine_secondary:amine_secondary:amine_secondary:amine_secondary:amine_secondary,2(amine_secondary) > 6(amine_secondary) > 10(amine_secondary) > 14(amine_secondary) > 18(amine_secondary) > 22(amine_secondary)
C1CNCCCNCCCNCCCNCCCNCCCNC1,7.95,2:6:10:14:18:22,amine_secondary:amine_secondary:amine_secondary:amine_secondary:amine_secondary:amine_secondary,"1,5,9,13,17,21-Hexaazacyclotetracosane",2:6:10:14:18:22,amine_secondary:amine_secondary:amine_secondary:amine_secondary:amine_secondary:amine_secondary,2(amine_secondary) > 6(amine_secondary) > 10(amine_secondary) > 14(amine_secondary) > 18(amine_secondary) > 22(amine_secondary)
C1CNCCCNCCCNCCCNCCCNCCCNC1,8.16,2:6:10:14:18:22,amine_secondary:amine_secondary:amine_secondary:amine_secondary:amine_secondary:amine_secondary,"1,5,9,13,17,21-Hexaazacyclotetracosane",2:6:10:14:18:22,amine_secondary:amine_secondary:amine_secondary:amine_secondary:amine_secondary:amine_secondary,2(amine_secondary) > 6(amine_secondary) > 10(amine_secondary) > 14(amine_secondary) > 18(amine_secondary) > 22(amine_secondary)
C1CNCCCNCCCNCCCNCCCNCCCNC1,7.1,2:6:10:14:18:22,amine_secondary:amine_secondary:amine_secondary:amine_secondary:amine_secondary:amine_secondary,"1,5,9,13,17,21-Hexaazacyclotetracosane",2:6:10:14:18:22,amine_secondary:amine_secondary:amine_secondary:amine_secondary:amine_secondary:amine_secondary,2(amine_secondary) > 6(amine_secondary) > 10(amine_secondary) > 14(amine_secondary) > 18(amine_secondary) > 22(amine_secondary)
C1CNCCCNCCCNCCCNCCCNCCCNC1,7.74,2:6:10:14:18:22,amine_secondary:amine_secondary:amine_secondary:amine_secondary:amine_secondary:amine_secondary,"1,5,9,13,17,21-Hexaazacyclotetracosane",2:6:10:14:18:22,amine_secondary:amine_secondary:amine_secondary:amine_secondary:amine_secondary:amine_secondary,2(amine_secondary) > 6(amine_secondary) > 10(amine_secondary) > 14(amine_secondary) > 18(amine_secondary) > 22(amine_secondary)
C1CNCCCNCCCNCCCNCCCNCCCNC1,6.5,2:6:10:14:18:22,amine_secondary:amine_secondary:amine_secondary:amine_secondary:amine_secondary:amine_secondary,"1,5,9,13,17,21-Hexaazacyclotetracosane",2:6:10:14:18:22,amine_secondary:amine_secondary:amine_secondary:amine_secondary:amine_secondary:amine_secondary,2(amine_secondary) > 6(amine_secondary) > 10(amine_secondary) > 14(amine_secondary) > 18(amine_secondary) > 22(amine_secondary)
C1CNCCCNCCCNCCCNCCCNCCCNC1,7.05,2:6:10:14:18:22,amine_secondary:amine_secondary:amine_secondary:amine_secondary:amine_secondary:amine_secondary,"1,5,9,13,17,21-Hexaazacyclotetracosane",2:6:10:14:18:22,amine_secondary:amine_secondary:amine_secondary:amine_secondary:amine_secondary:amine_secondary,2(amine_secondary) > 6(amine_secondary) > 10(amine_secondary) > 14(amine_secondary) > 18(amine_secondary) > 22(amine_secondary)
C1CCCNCCNCCNCCCCCCNCCNCCNCC1,10.73,4:7:10:17:20:23,amine_secondary:amine_secondary:amine_secondary:amine_secondary:amine_secondary:amine_secondary,"1,4,7,14,17,20-Hexaazacyclohexacosane",4:7:10:17:20:23,amine_secondary:amine_secondary:amine_secondary:amine_secondary:amine_secondary:amine_secondary,4(amine_secondary) > 7(amine_secondary) > 10(amine_secondary) > 17(amine_secondary) > 20(amine_secondary) > 23(amine_secondary)
C1CCCNCCNCCNCCCCCCNCCNCCNCC1,10.31,4:7:10:17:20:23,amine_secondary:amine_secondary:amine_secondary:amine_secondary:amine_secondary:amine_secondary,"1,4,7,14,17,20-Hexaazacyclohexacosane",4:7:10:17:20:23,amine_secondary:amine_secondary:amine_secondary:amine_secondary:amine_secondary:amine_secondary,4(amine_secondary) > 7(amine_secondary) > 10(amine_secondary) > 17(amine_secondary) > 20(amine_secondary) > 23(amine_secondary)
C1CCCNCCNCCNCCCCCCNCCNCCNCC1,9.93,4:7:10:17:20:23,amine_secondary:amine_secondary:amine_secondary:amine_secondary:amine_secondary:amine_secondary,"1,4,7,14,17,20-Hexaazacyclohexacosane",4:7:10:17:20:23,amine_secondary:amine_secondary:amine_secondary:amine_secondary:amine_secondary:amine_secondary,4(amine_secondary) > 7(amine_secondary) > 10(amine_secondary) > 17(amine_secondary) > 20(amine_secondary) > 23(amine_secondary)
C1CCCNCCNCCNCCCCCCNCCNCCNCC1,9.47,4:7:10:17:20:23,amine_secondary:amine_secondary:amine_secondary:amine_secondary:amine_secondary:amine_secondary,"1,4,7,14,17,20-Hexaazacyclohexacosane",4:7:10:17:20:23,amine_secondary:amine_secondary:amine_secondary:amine_secondary:amine_secondary:amine_secondary,4(amine_secondary) > 7(amine_secondary) > 10(amine_secondary) > 17(amine_secondary) > 20(amine_secondary) > 23(amine_secondary)
C1CCCNCCNCCNCCCCCCNCCNCCNCC1,3.82,4:7:10:17:20:23,amine_secondary:amine_secondary:amine_secondary:amine_secondary:amine_secondary:amine_secondary,"1,4,7,14,17,20-Hexaazacyclohexacosane",4:7:10:17:20:23,amine_secondary:amine_secondary:amine_secondary:amine_secondary:amine_secondary:amine_secondary,4(amine_secondary) > 7(amine_secondary) > 10(amine_secondary) > 17(amine_secondary) > 20(amine_secondary) > 23(amine_secondary)
C1CCCNCCNCCNCCCCCCNCCNCCNCC1,3.57,4:7:10:17:20:23,amine_secondary:amine_secondary:amine_secondary:amine_secondary:amine_secondary:amine_secondary,"1,4,7,14,17,20-Hexaazacyclohexacosane",4:7:10:17:20:23,amine_secondary:amine_secondary:amine_secondary:amine_secondary:amine_secondary:amine_secondary,4(amine_secondary) > 7(amine_secondary) > 10(amine_secondary) > 17(amine_secondary) > 20(amine_secondary) > 23(amine_secondary)
C1CCCCNCCNCCNCCCCCCCCCNCCNCCNCCCC1,9.6,5:8:11:21:24:27,amine_secondary:amine_secondary:amine_secondary:amine_secondary:amine_secondary:amine_secondary,"1,4,7,17,20,23-Hexaazacyclodotriacontane",5:8:11:21:24:27,amine_secondary:amine_secondary:amine_secondary:amine_secondary:amine_secondary:amine_secondary,5(amine_secondary) > 8(amine_secondary) > 11(amine_secondary) > 21(amine_secondary) > 24(amine_secondary) > 27(amine_secondary)
C1CCCCNCCNCCNCCCCCCCCCNCCNCCNCCCC1,9.25,5:8:11:21:24:27,amine_secondary:amine_secondary:amine_secondary:amine_secondary:amine_secondary:amine_secondary,"1,4,7,17,20,23-Hexaazacyclodotriacontane",5:8:11:21:24:27,amine_secondary:amine_secondary:amine_secondary:amine_secondary:amine_secondary:amine_secondary,5(amine_secondary) > 8(amine_secondary) > 11(amine_secondary) > 21(amine_secondary) > 24(amine_secondary) > 27(amine_secondary)
C1CCCCNCCNCCNCCCCCCCCCNCCNCCNCCCC1,4.15,5:8:11:21:24:27,amine_secondary:amine_secondary:amine_secondary:amine_secondary:amine_secondary:amine_secondary,"1,4,7,17,20,23-Hexaazacyclodotriacontane",5:8:11:21:24:27,amine_secondary:amine_secondary:amine_secondary:amine_secondary:amine_secondary:amine_secondary,5(amine_secondary) > 8(amine_secondary) > 11(amine_secondary) > 21(amine_secondary) > 24(amine_secondary) > 27(amine_secondary)
C1CCCCNCCNCCNCCCCCCCCCNCCNCCNCCCC1,3.55,5:8:11:21:24:27,amine_secondary:amine_secondary:amine_secondary:amine_secondary:amine_secondary:amine_secondary,"1,4,7,17,20,23-Hexaazacyclodotriacontane",5:8:11:21:24:27,amine_secondary:amine_secondary:amine_secondary:amine_secondary:amine_secondary:amine_secondary,5(amine_secondary) > 8(amine_secondary) > 11(amine_secondary) > 21(amine_secondary) > 24(amine_secondary) > 27(amine_secondary)
C1CCCNCCCNCCCNCCCCCCCNCCCNCCCNCCC1,10.9,4:8:12:20:24:28,amine_secondary:amine_secondary:amine_secondary:amine_secondary:amine_secondary:amine_secondary,"1,5,9,17,21,25-Hexaazacyclodotriacontane",4:8:12:20:24:28,amine_secondary:amine_secondary:amine_secondary:amine_secondary:amine_secondary:amine_secondary,4(amine_secondary) > 8(amine_secondary) > 12(amine_secondary) > 20(amine_secondary) > 24(amine_secondary) > 28(amine_secondary)
C1CCCNCCCNCCCNCCCCCCCNCCCNCCCNCCC1,10.7,4:8:12:20:24:28,amine_secondary:amine_secondary:amine_secondary:amine_secondary:amine_secondary:amine_secondary,"1,5,9,17,21,25-Hexaazacyclodotriacontane",4:8:12:20:24:28,amine_secondary:amine_secondary:amine_secondary:amine_secondary:amine_secondary:amine_secondary,4(amine_secondary) > 8(amine_secondary) > 12(amine_secondary) > 20(amine_secondary) > 24(amine_secondary) > 28(amine_secondary)
C1CCCNCCCNCCCNCCCCCCCNCCCNCCCNCCC1,9.85,4:8:12:20:24:28,amine_secondary:amine_secondary:amine_secondary:amine_secondary:amine_secondary:amine_secondary,"1,5,9,17,21,25-Hexaazacyclodotriacontane",4:8:12:20:24:28,amine_secondary:amine_secondary:amine_secondary:amine_secondary:amine_secondary:amine_secondary,4(amine_secondary) > 8(amine_secondary) > 12(amine_secondary) > 20(amine_secondary) > 24(amine_secondary) > 28(amine_secondary)
C1CCCNCCCNCCCNCCCCCCCNCCCNCCCNCCC1,9.6,4:8:12:20:24:28,amine_secondary:amine_secondary:amine_secondary:amine_secondary:amine_secondary:amine_secondary,"1,5,9,17,21,25-Hexaazacyclodotriacontane",4:8:12:20:24:28,amine_secondary:amine_secondary:amine_secondary:amine_secondary:amine_secondary:amine_secondary,4(amine_secondary) > 8(amine_secondary) > 12(amine_secondary) > 20(amine_secondary) > 24(amine_secondary) > 28(amine_secondary)
C1CCCNCCCNCCCNCCCCCCCNCCCNCCCNCCC1,7.9,4:8:12:20:24:28,amine_secondary:amine_secondary:amine_secondary:amine_secondary:amine_secondary:amine_secondary,"1,5,9,17,21,25-Hexaazacyclodotriacontane",4:8:12:20:24:28,amine_secondary:amine_secondary:amine_secondary:amine_secondary:amine_secondary:amine_secondary,4(amine_secondary) > 8(amine_secondary) > 12(amine_secondary) > 20(amine_secondary) > 24(amine_secondary) > 28(amine_secondary)
C1CCCNCCCNCCCNCCCCCCCNCCCNCCCNCCC1,7.3,4:8:12:20:24:28,amine_secondary:amine_secondary:amine_secondary:amine_secondary:amine_secondary:amine_secondary,"1,5,9,17,21,25-Hexaazacyclodotriacontane",4:8:12:20:24:28,amine_secondary:amine_secondary:amine_secondary:amine_secondary:amine_secondary:amine_secondary,4(amine_secondary) > 8(amine_secondary) > 12(amine_secondary) > 20(amine_secondary) > 24(amine_secondary) > 28(amine_secondary)
C1CCCCCNCCCNCCCNCCCCCCCCCCNCCCNCCCNCCCC1,10.3,6:10:14:25:29:33,amine_secondary:amine_secondary:amine_secondary:amine_secondary:amine_secondary:amine_secondary,"1,5,9,20,24,28-Hexaazacyclooctatriacontane",6:10:14:25:29:33,amine_secondary:amine_secondary:amine_secondary:amine_secondary:amine_secondary:amine_secondary,6(amine_secondary) > 10(amine_secondary) > 14(amine_secondary) > 25(amine_secondary) > 29(amine_secondary) > 33(amine_secondary)
C1CCCCCNCCCNCCCNCCCCCCCCCCNCCCNCCCNCCCC1,10.1,6:10:14:25:29:33,amine_secondary:amine_secondary:amine_secondary:amine_secondary:amine_secondary:amine_secondary,"1,5,9,20,24,28-Hexaazacyclooctatriacontane",6:10:14:25:29:33,amine_secondary:amine_secondary:amine_secondary:amine_secondary:amine_secondary:amine_secondary,6(amine_secondary) > 10(amine_secondary) > 14(amine_secondary) > 25(amine_secondary) > 29(amine_secondary) > 33(amine_secondary)
C1CCCCCNCCCNCCCNCCCCCCCCCCNCCCNCCCNCCCC1,9.6,6:10:14:25:29:33,amine_secondary:amine_secondary:amine_secondary:amine_secondary:amine_secondary:amine_secondary,"1,5,9,20,24,28-Hexaazacyclooctatriacontane",6:10:14:25:29:33,amine_secondary:amine_secondary:amine_secondary:amine_secondary:amine_secondary:amine_secondary,6(amine_secondary) > 10(amine_secondary) > 14(amine_secondary) > 25(amine_secondary) > 29(amine_secondary) > 33(amine_secondary)
C1CCCCCNCCCNCCCNCCCCCCCCCCNCCCNCCCNCCCC1,7.95,6:10:14:25:29:33,amine_secondary:amine_secondary:amine_secondary:amine_secondary:amine_secondary:amine_secondary,"1,5,9,20,24,28-Hexaazacyclooctatriacontane",6:10:14:25:29:33,amine_secondary:amine_secondary:amine_secondary:amine_secondary:amine_secondary:amine_secondary,6(amine_secondary) > 10(amine_secondary) > 14(amine_secondary) > 25(amine_secondary) > 29(amine_secondary) > 33(amine_secondary)
C1CCCCCNCCCNCCCNCCCCCCCCCCNCCCNCCCNCCCC1,7.3,6:10:14:25:29:33,amine_secondary:amine_secondary:amine_secondary:amine_secondary:amine_secondary:amine_secondary,"1,5,9,20,24,28-Hexaazacyclooctatriacontane",6:10:14:25:29:33,amine_secondary:amine_secondary:amine_secondary:amine_secondary:amine_secondary:amine_secondary,6(amine_secondary) > 10(amine_secondary) > 14(amine_secondary) > 25(amine_secondary) > 29(amine_secondary) > 33(amine_secondary)
CC1(F)C(=O)NCCNCCCNCCNC1=O,9.56,5:8,amine_secondary:amine_secondary,"5,7-Dioxo-6-fluoro-6-methyl-1,4,8,11-tetraazacyclotetradecane",5:8,amine_secondary:amine_secondary,5(amine_secondary) > 8(amine_secondary)
CC1(F)C(=O)NCCNCCCNCCNC1=O,5.53,5:8,amine_secondary:amine_secondary,"5,7-Dioxo-6-fluoro-6-methyl-1,4,8,11-tetraazacyclotetradecane",5:8,amine_secondary:amine_secondary,5(amine_secondary) > 8(amine_secondary)
FC1(F)C(=O)NCCNCCCNCCNC1=O,9.22,5:8,amine_secondary:amine_secondary,"5,7-Dioxo-6,6-difluoro-1,4,8,11-tetraazacyclotetradecane",5:8,amine_secondary:amine_secondary,5(amine_secondary) > 8(amine_secondary)
FC1(F)C(=O)NCCNCCCNCCNC1=O,5.18,5:8,amine_secondary:amine_secondary,"5,7-Dioxo-6,6-difluoro-1,4,8,11-tetraazacyclotetradecane",5:8,amine_secondary:amine_secondary,5(amine_secondary) > 8(amine_secondary)
FC1(F)CNCCNC(=O)C(F)(F)C(=O)NCCNC1,6.1,4:7,amine_secondary:amine_secondary,"5,7-Dioxo-6,6,13,13-tetrafluoro-1,4,8,11-tetraazacyclotetradecane",4:7,amine_secondary:amine_secondary,4(amine_secondary) > 7(amine_secondary)
FC1(F)CNCCNC(=O)C(F)(F)C(=O)NCCNC1,1.9,4:7,amine_secondary:amine_secondary,"5,7-Dioxo-6,6,13,13-tetrafluoro-1,4,8,11-tetraazacyclotetradecane",4:7,amine_secondary:amine_secondary,4(amine_secondary) > 7(amine_secondary)
Oc1ccccc1CC2C(=O)NCCNCCCNCCNC2=O,9.97,11:14:18,amine_secondary:amine_secondary:amine_secondary,"5,7-Dioxo-6-(2-hydroxybenzyl)-1,4,8,11-tetraazacyclotetradecane",11:14:18,amine_secondary:amine_secondary:amine_secondary,11(amine_secondary) > 14(amine_secondary) > 18(amine_secondary)
Oc1ccccc1CC2C(=O)NCCNCCCNCCNC2=O,9.37,11:14:18,amine_secondary:amine_secondary:amine_secondary,"5,7-Dioxo-6-(2-hydroxybenzyl)-1,4,8,11-tetraazacyclotetradecane",11:14:18,amine_secondary:amine_secondary:amine_secondary,11(amine_secondary) > 14(amine_secondary) > 18(amine_secondary)
Oc1ccccc1CC2C(=O)NCCNCCCNCCNC2=O,5.72,11:14:18,amine_secondary:amine_secondary:amine_secondary,"5,7-Dioxo-6-(2-hydroxybenzyl)-1,4,8,11-tetraazacyclotetradecane",11:14:18,amine_secondary:amine_secondary:amine_secondary,11(amine_secondary) > 14(amine_secondary) > 18(amine_secondary)
NCCCCC1C(=O)NCCNCCCNCCNC1=O,10.05,0:8:11,amine_primary:amine_secondary:amine_secondary,"6-(4-Aminobutyl)-5,7-dioxo-1,4,8,11-tetraazacyclotetradecane",0:8:11,amine_primary:amine_secondary:amine_secondary,0(amine_primary) > 8(amine_secondary) > 11(amine_secondary)
NCCCCC1C(=O)NCCNCCCNCCNC1=O,9.34,0:8:11,amine_primary:amine_secondary:amine_secondary,"6-(4-Aminobutyl)-5,7-dioxo-1,4,8,11-tetraazacyclotetradecane",0:8:11,amine_primary:amine_secondary:amine_secondary,0(amine_primary) > 8(amine_secondary) > 11(amine_secondary)
NCCCCC1C(=O)NCCNCCCNCCNC1=O,5.63,0:8:11,amine_primary:amine_secondary:amine_secondary,"6-(4-Aminobutyl)-5,7-dioxo-1,4,8,11-tetraazacyclotetradecane",0:8:11,amine_primary:amine_secondary:amine_secondary,0(amine_primary) > 8(amine_secondary) > 11(amine_secondary)
O=C1NCCNCCCNCCNC(=O)C1CCc2ccccn2,9.58,2:5:9,amine_secondary:amine_secondary:amine_secondary,"5,7-Dioxo-6-[2-(2-pyridyl)ethyl]-1,4,8,11-tetraazacyclotetradecane",2:5:9,amine_secondary:amine_secondary:amine_secondary,2(amine_secondary) > 5(amine_secondary) > 9(amine_secondary)
O=C1NCCNCCCNCCNC(=O)C1CCc2ccccn2,9.37,2:5:9,amine_secondary:amine_secondary:amine_secondary,"5,7-Dioxo-6-[2-(2-pyridyl)ethyl]-1,4,8,11-tetraazacyclotetradecane",2:5:9,amine_secondary:amine_secondary:amine_secondary,2(amine_secondary) > 5(amine_secondary) > 9(amine_secondary)
O=C1NCCNCCCNCCNC(=O)C1CCc2ccccn2,5.89,2:5:9,amine_secondary:amine_secondary:amine_secondary,"5,7-Dioxo-6-[2-(2-pyridyl)ethyl]-1,4,8,11-tetraazacyclotetradecane",2:5:9,amine_secondary:amine_secondary:amine_secondary,2(amine_secondary) > 5(amine_secondary) > 9(amine_secondary)
O=C1NCCNCCCNCCNC(=O)C1CCc2ccccn2,5.68,2:5:9,amine_secondary:amine_secondary:amine_secondary,"5,7-Dioxo-6-[2-(2-pyridyl)ethyl]-1,4,8,11-tetraazacyclotetradecane",2:5:9,amine_secondary:amine_secondary:amine_secondary,2(amine_secondary) > 5(amine_secondary) > 9(amine_secondary)
O=C1NCCNCCCNCCNC(=O)C1CCc2ccccn2,4.07,2:5:9,amine_secondary:amine_secondary:amine_secondary,"5,7-Dioxo-6-[2-(2-pyridyl)ethyl]-1,4,8,11-tetraazacyclotetradecane",2:5:9,amine_secondary:amine_secondary:amine_secondary,2(amine_secondary) > 5(amine_secondary) > 9(amine_secondary)
O=C1NCCNCCCNCCNC(=O)C1CCc2ccccn2,4.86,2:5:9,amine_secondary:amine_secondary:amine_secondary,"5,7-Dioxo-6-[2-(2-pyridyl)ethyl]-1,4,8,11-tetraazacyclotetradecane",2:5:9,amine_secondary:amine_secondary:amine_secondary,2(amine_secondary) > 5(amine_secondary) > 9(amine_secondary)
[O-][NH+]1CCCNCCNC(=O)C(CCc2ccccn2)C(=O)NCC1,9.33,1:5,amine_secondary:amine_secondary,"5,7-Dioxo-6-[2-(2-pyridyl)ethyl]-1,4,8,11-tetraazacyclotetradecane-N-oxide",1:5,amine_secondary:amine_secondary,1(amine_secondary) > 5(amine_secondary)