SMILES,pKa,Dissociable_Atoms,Functional_Group,Name
CC(O)C(O)=O,3.86,4,carboxylic_acid,D-2-Hydroxypropanoic acid (Lactic acid)
CC(O)C(O)=O,3.875,4,carboxylic_acid,D-2-Hydroxypropanoic acid (Lactic acid)
CCCCC(O)C(O)=O,3.68,7,carboxylic_acid,DL-2-Hydroxyhexanoic acid
CC(C)(O)C(O)=O,3.79,5,carboxylic_acid,2-Hydroxy-2-methylpropanoic acid
CC(C)(O)C(O)=O,3.75,5,carboxylic_acid,2-Hydroxy-2-methylpropanoic acid
CC(C)(O)C(O)=O,3.77,5,carboxylic_acid,2-Hydroxy-2-methylpropanoic acid
CC(C)(O)C(O)=O,3.92,5,carboxylic_acid,2-Hydroxy-2-methylpropanoic acid
CC(C)(O)C(O)=O,4.03,5,carboxylic_acid,2-Hydroxy-2-methylpropanoic acid
CCC(O)(CC)C(O)=O,3.62,7,carboxylic_acid,2-Hydroxy-2-ethylbutanoic acid
CCC(O)(CC)C(O)=O,3.63,7,carboxylic_acid,2-Hydroxy-2-ethylbutanoic acid
CCC(O)(CC)C(O)=O,3.8,7,carboxylic_acid,2-Hydroxy-2-ethylbutanoic acid
CCCC(O)(CCC)C(O)=O,3.8,9,carboxylic_acid,2-Hydroxy-2-propylpentanoic acid
OC(=O)C1(O)CCCC1,3.97,0,carboxylic_acid,1-Hydroxycyclopentanecarboxylic acid
OC(=O)C1(O)CCCC1,3.9,0,carboxylic_acid,1-Hydroxycyclopentanecarboxylic acid
OC(=O)C1(O)CCCC1,3.92,0,carboxylic_acid,1-Hydroxycyclopentanecarboxylic acid
OC(=O)C1(O)CCCC1,4.11,0,carboxylic_acid,1-Hydroxycyclopentanecarboxylic acid
OC(=O)C1(O)CCCC1,4.155,0,carboxylic_acid,1-Hydroxycyclopentanecarboxylic acid
OC(=O)C1(O)CCCCC1,3.98,0,carboxylic_acid,1-Hydroxycyclohexanecarboxylic acid
OC(=O)C1(O)CCCCC1,3.91,0,carboxylic_acid,1-Hydroxycyclohexanecarboxylic acid
OC(=O)C1(O)CCCCC1,3.93,0,carboxylic_acid,1-Hydroxycyclohexanecarboxylic acid
OC(=O)C1(O)CCCCC1,4.05,0,carboxylic_acid,1-Hydroxycyclohexanecarboxylic acid
OC(=O)C1(O)CCCCC1,4.159,0,carboxylic_acid,1-Hydroxycyclohexanecarboxylic acid
OC(=O)C1(O)CCCCCC1,4.03,0,carboxylic_acid,1-Hydroxycycloheptanecarboxylic acid
OC(=O)C1(O)CCCCCC1,3.96,0,carboxylic_acid,1-Hydroxycycloheptanecarboxylic acid
OC(=O)C1(O)CCCCCC1,3.98,0,carboxylic_acid,1-Hydroxycycloheptanecarboxylic acid
OC(=O)C1(O)CCCCCC1,4.17,0,carboxylic_acid,1-Hydroxycycloheptanecarboxylic acid
OC(=O)C1(O)CCCCCC1,4.21,0,carboxylic_acid,1-Hydroxycycloheptanecarboxylic acid
OC(C(O)=O)c1ccccc1,3.2,3,carboxylic_acid,L-Phenyl(hydroxy)acetic acid (Mandelic acid)
OC(C(O)=O)c1ccccc1,3.12,3,carboxylic_acid,L-Phenyl(hydroxy)acetic acid (Mandelic acid)
OC(C(O)=O)c1ccccc1,3.18,3,carboxylic_acid,L-Phenyl(hydroxy)acetic acid (Mandelic acid)
OC(C(O)=O)c1ccccc1,3.24,3,carboxylic_acid,L-Phenyl(hydroxy)acetic acid (Mandelic acid)
OC(C(O)=O)c1ccccc1,3.31,3,carboxylic_acid,L-Phenyl(hydroxy)acetic acid (Mandelic acid)
OC(C(O)=O)c1ccccc1,3.38,3,carboxylic_acid,L-Phenyl(hydroxy)acetic acid (Mandelic acid)
OC(C(O)=O)c1ccccc1,3.49,3,carboxylic_acid,L-Phenyl(hydroxy)acetic acid (Mandelic acid)
OC(C(O)=O)c1ccccc1,3.4,3,carboxylic_acid,L-Phenyl(hydroxy)acetic acid (Mandelic acid)
CC(O)(C(O)=O)c1ccccc1,3.53,4,carboxylic_acid,DL-2-Phenyl-2-hydroxypropanoic acid (Atrolactic acid)
OC(=O)C(O)(c1ccccc1)c2ccccc2,2.87,0,carboxylic_acid,Diphenyl(hydroxy)acetic acid (Benzilic acid)
OC(=O)C(O)(c1ccccc1)c2ccccc2,2.8,0,carboxylic_acid,Diphenyl(hydroxy)acetic acid (Benzilic acid)
OC(=O)C(O)(c1ccccc1)c2ccccc2,2.89,0,carboxylic_acid,Diphenyl(hydroxy)acetic acid (Benzilic acid)
OC(=O)C(O)(c1ccccc1)c2ccccc2,3.05,0,carboxylic_acid,Diphenyl(hydroxy)acetic acid (Benzilic acid)
OCC(O)C(O)=O,3.4,5,carboxylic_acid,"DL-2,3-Dihydroxypropanoic acid (Glyceric acid)"
OCC(O)C(O)=O,3.54,5,carboxylic_acid,"DL-2,3-Dihydroxypropanoic acid (Glyceric acid)"
OCC(O)(CO)C(O)=O,3.39,7,carboxylic_acid,"2,3-Dihydroxy-2-(hydroxymethyl)propanoic acid"
OCC(O)(CO)C(O)=O,3.29,7,carboxylic_acid,"2,3-Dihydroxy-2-(hydroxymethyl)propanoic acid"
OC[C@@H](O)[C@@H](O)[C@H](O)[C@@H](O)C(O)=O,3.46,11,carboxylic_acid,D-gluco-Pentahydroxyhexanoic acid (D-Gluconic acid)
OC[C@@H](O)[C@@H](O)[C@H](O)[C@@H](O)C(O)=O,3.48,11,carboxylic_acid,D-gluco-Pentahydroxyhexanoic acid (D-Gluconic acid)
O[C@@H](C=O)[C@@H](O)[C@@H](O)[C@H](O)C(O)=O,3.2,11,carboxylic_acid,5-Carboxy-D-galactopyranose (D-Galacturonic acid)
O[C@@H](C=O)[C@@H](O)[C@@H](O)[C@H](O)C(O)=O,3.23,11,carboxylic_acid,5-Carboxy-D-galactopyranose (D-Galacturonic acid)
O[C@@H](C=O)[C@@H](O)[C@@H](O)[C@H](O)C(O)=O,3.16,11,carboxylic_acid,5-Carboxy-D-galactopyranose (D-Galacturonic acid)
O[C@@H](C=O)[C@@H](O)[C@@H](O)[C@H](O)C(O)=O,3.471,11,carboxylic_acid,5-Carboxy-D-galactopyranose (D-Galacturonic acid)
O[C@@H](C=O)[C@@H](O)[C@H](O)[C@H](O)C(O)=O,2.97,11,carboxylic_acid,5-Carboxy-D-glucopyranose (D-Glucuronic acid)
O[C@@H](C=O)[C@@H](O)[C@H](O)[C@H](O)C(O)=O,2.93,11,carboxylic_acid,5-Carboxy-D-glucopyranose (D-Glucuronic acid)
O[C@@H](C=O)[C@@H](O)[C@H](O)[C@H](O)C(O)=O,3.231,11,carboxylic_acid,5-Carboxy-D-glucopyranose (D-Glucuronic acid)
OCCC(O)=O,4.4,4,carboxylic_acid,3-Hydroxypropanoic acid
OCCC(O)=O,4.32,4,carboxylic_acid,3-Hydroxypropanoic acid
OCCC(O)=O,4.56,4,carboxylic_acid,3-Hydroxypropanoic acid
CC(C)(CO)C(O)=O,4.87,6,carboxylic_acid,"3-Hydroxy-2,2-dimethylpropanoic acid"
O[C@H]1CCCC[C@H]1C(O)=O,4.6,8,carboxylic_acid,cis-2-Hydroxycyclohexanecarboxylic acid
O[C@H]1CCCC[C@H]1C(O)=O,4.53,8,carboxylic_acid,cis-2-Hydroxycyclohexanecarboxylic acid
O[C@H]1CCCC[C@H]1C(O)=O,4.796,8,carboxylic_acid,cis-2-Hydroxycyclohexanecarboxylic acid
O[C@@H]1CCCC[C@H]1C(O)=O,4.49,8,carboxylic_acid,trans-2-Hydroxycyclohexanecarboxylic acid
O[C@@H]1CCCC[C@H]1C(O)=O,4.692,8,carboxylic_acid,trans-2-Hydroxycyclohexanecarboxylic acid
OC(CC(O)=O)c1ccccc1,4.4,4,carboxylic_acid,3-Hydroxy-3-phenylpropanoic acid
CC(CO)(CO)C(O)=O,4.42,7,carboxylic_acid,"2,2-Bis(hydroxymethyl)propanoic acid"
CC(CO)(CO)C(O)=O,4.61,7,carboxylic_acid,"2,2-Bis(hydroxymethyl)propanoic acid"
OCC(CO)(CO)C(O)=O,4.46,8,carboxylic_acid,Tris(hydroxymethyl)acetic acid
OCCCC(O)=O,4.57,5,carboxylic_acid,4-Hydroxybutanoic acid
OCCCC(O)=O,4.85,5,carboxylic_acid,4-Hydroxybutanoic acid
OCCCC(O)=O,4.99,5,carboxylic_acid,4-Hydroxybutanoic acid
OC1CC(=CC(O)C1O)C(O)=O,4.01,10,carboxylic_acid,"3,4,5-Trihydroxycyclohex-1-enecarboxylic acid (Skikimic acid)"
CC(C)(O)CCC(O)=O,4.69,7,carboxylic_acid,4-Hydroxy-4-methylpentanoic acid
O[C@@H]1CCC[C@@H](C1)C(O)=O,4.41,8,carboxylic_acid,cis-3-Hydroxycyclohexanecarboxylic acid
O[C@@H]1CCC[C@@H](C1)C(O)=O,4.602,8,carboxylic_acid,cis-3-Hydroxycyclohexanecarboxylic acid
O[C@H]1CCC[C@@H](C1)C(O)=O,4.53,8,carboxylic_acid,trans-3-Hydroxycyclohexanecarboxylic acid
O[C@H]1CCC[C@@H](C1)C(O)=O,4.815,8,carboxylic_acid,trans-3-Hydroxycyclohexanecarboxylic acid
O[C@H]1CC[C@H](CC1)C(O)=O,4.64,8,carboxylic_acid,cis-4-Hydroxycyclohexanecarboxylic acid
O[C@H]1CC[C@H](CC1)C(O)=O,4.836,8,carboxylic_acid,cis-4-Hydroxycyclohexanecarboxylic acid
O[C@@H]1CC[C@H](CC1)C(O)=O,4.48,8,carboxylic_acid,trans-4-Hydroxycyclohexanecarboxylic acid
O[C@@H]1CC[C@H](CC1)C(O)=O,4.678,8,carboxylic_acid,trans-4-Hydroxycyclohexanecarboxylic acid
OC(=O)C=O,3.05,0,carboxylic_acid,Oxoacetic acid (Glyoxylic acid)
OC(=O)C=O,2.83,0,carboxylic_acid,Oxoacetic acid (Glyoxylic acid)
OC(=O)C=O,2.91,0,carboxylic_acid,Oxoacetic acid (Glyoxylic acid)
OC(=O)C=O,3.46,0,carboxylic_acid,Oxoacetic acid (Glyoxylic acid)
CC(=O)C(O)=O,2.26,4,carboxylic_acid,2-Oxopropanoic acid (Pyruvic acid)
CC(=O)C(O)=O,2.2,4,carboxylic_acid,2-Oxopropanoic acid (Pyruvic acid)
CC(=O)C(O)=O,2.15,4,carboxylic_acid,2-Oxopropanoic acid (Pyruvic acid)
CC(=O)C(O)=O,2.3,4,carboxylic_acid,2-Oxopropanoic acid (Pyruvic acid)
CC(=O)C(O)=O,2.4,4,carboxylic_acid,2-Oxopropanoic acid (Pyruvic acid)
CC(=O)C(O)=O,2.48,4,carboxylic_acid,2-Oxopropanoic acid (Pyruvic acid)
CCC(=O)C(O)=O,2.48,5,carboxylic_acid,2-Oxobutanoic acid
CCC(=O)C(O)=O,2.5,5,carboxylic_acid,2-Oxobutanoic acid
CC(=O)CC(O)=O,3.57,5,carboxylic_acid,3-Oxobutanoic acid (Acetoacetic acid)
CC(=O)CC(O)=O,3.65,5,carboxylic_acid,3-Oxobutanoic acid (Acetoacetic acid)
CC(=O)CCC(O)=O,4.5,6,carboxylic_acid,4-Oxopentanoic acid (Levulinic acid)
CC(=O)CCC(O)=O,4.44,6,carboxylic_acid,4-Oxopentanoic acid (Levulinic acid)
CC(=O)CCC(O)=O,4.38,6,carboxylic_acid,4-Oxopentanoic acid (Levulinic acid)
CC(=O)CCC(O)=O,4.34,6,carboxylic_acid,4-Oxopentanoic acid (Levulinic acid)
CC(=O)CCC(O)=O,4.41,6,carboxylic_acid,4-Oxopentanoic acid (Levulinic acid)
CC(=O)CCC(O)=O,4.52,6,carboxylic_acid,4-Oxopentanoic acid (Levulinic acid)
CC(=O)CCC(O)=O,4.69,6,carboxylic_acid,4-Oxopentanoic acid (Levulinic acid)
CC(=O)CCC(O)=O,4.64,6,carboxylic_acid,4-Oxopentanoic acid (Levulinic acid)
CC(=O)CCCC(O)=O,4.66,7,carboxylic_acid,5-Oxohexanoic acid (4-Acetylbutanoic acid)
CCOC(=O)\C=C/C([O-])=O,3.077,8,carboxylic_acid,cis-Butenedioic acid ethyl ester (Ethyl maleate)
CCOC(=O)\C=C\C([O-])=O,3.396,8,carboxylic_acid,trans-Butenedioic acid ethyl ester (Ethyl fumarate)
CC(=O)Oc1ccccc1C(O)=O,3.45,11,carboxylic_acid,2-Acetoxybenzoic acid (Acetylsalicylic acid)
CC(=O)OCC(O)=O,2.81,6,carboxylic_acid,Acetoxyacetic acid
CC(=O)NCC(O)=O,3.49,6,carboxylic_acid,N-Acetylglycine
CC(=O)NCC(O)=O,3.44,6,carboxylic_acid,N-Acetylglycine
CC(=O)NCC(O)=O,3.46,6,carboxylic_acid,N-Acetylglycine
CC(=O)NCC(O)=O,3.67,6,carboxylic_acid,N-Acetylglycine
CCC(=O)NCC(O)=O,3.718,7,carboxylic_acid,N-Propanoylglycine
C[C@H](NC(C)=O)C(O)=O,3.715,7,carboxylic_acid,N-Acetylalanine
CCC(NC(C)=O)C(O)=O,3.716,8,carboxylic_acid,N-Acetyl-2-aminobutanoic acid
CC(=O)NCCC(O)=O,4.445,7,carboxylic_acid,N-Acetyl-3-aminopropanoic acid
OC(=O)CNC(=O)c1ccccc1,3.48,0,carboxylic_acid,N-Benzoylglycine (Hippuric acid)
OC(=O)CNC(=O)c1ccccc1,3.5,0,carboxylic_acid,N-Benzoylglycine (Hippuric acid)
CC(=O)NCC(=O)NCC(O)=O,3.36,10,carboxylic_acid,N-Acetylglycylglycine
OC(=O)[C@@H]1CCC(=O)N1,3.1,0,carboxylic_acid,L-5-Pyrrolidone-2-carboxylic acid (Pyroglutamic acid)
C[C@]1(CCC(=O)N1)C(O)=O,3.14,8,carboxylic_acid,DL-2-Methyl-5-pyrrolidone-2-carboxylic acid (2-Methylpyroglutamic acid)
OC(=O)[C@@]1(CCC(=O)N1)c2ccccc2,2.69,0,carboxylic_acid,DL-2-Phenyl-5-pyrrolidone-2-carboxylic acid (2-Phenylpyroglutamic acid)
NC(=O)NCC(O)=O,3.876,6,carboxylic_acid,N-Carbamoylglycine
C[C@H](NC(N)=O)C(O)=O,3.892,7,carboxylic_acid,N-Carbamoylalanine
CCC(NC(N)=O)C(O)=O,3.886,8,carboxylic_acid,N-Carbamoyl-2-aminobutanoic acid
CC(C)(NC(N)=O)C(O)=O,4.463,8,carboxylic_acid,N-Carbamoyl-2-amino-2-methylpropanoic acid
NC(=O)NCCC(O)=O,4.487,7,carboxylic_acid,N-Carbamoyl-3-aminopropanoic acid
NC(=O)NCCCC(O)=O,4.683,8,carboxylic_acid,N-Carbamoyl-4-aminobutanoic acid
OC(=O)C1=CC(=O)NC(=O)N1,9.29,0:7,carboxylic_acid:amine_secondary,"1,3-Dihydro-1,3-diazine-2,4-dione-6-carboxylic acid (Uracil-6-carboxylic acid) (Orotic acid)"
OC(=O)C1=CC(=O)NC(=O)N1,9.13,0:7,carboxylic_acid:amine_secondary,"1,3-Dihydro-1,3-diazine-2,4-dione-6-carboxylic acid (Uracil-6-carboxylic acid) (Orotic acid)"
OC(=O)C1=CC(=O)NC(=O)N1,9.6,0:7,carboxylic_acid:amine_secondary,"1,3-Dihydro-1,3-diazine-2,4-dione-6-carboxylic acid (Uracil-6-carboxylic acid) (Orotic acid)"
OC(=O)C1=CC(=O)NC(=O)N1,2.0,0:7,carboxylic_acid:amine_secondary,"1,3-Dihydro-1,3-diazine-2,4-dione-6-carboxylic acid (Uracil-6-carboxylic acid) (Orotic acid)"
OC(=O)C1=CC(=O)NC(=O)N1,1.8,0:7,carboxylic_acid:amine_secondary,"1,3-Dihydro-1,3-diazine-2,4-dione-6-carboxylic acid (Uracil-6-carboxylic acid) (Orotic acid)"
OC(=O)C1=CNC(=O)NC1=O,8.78,0:5,carboxylic_acid:amine_secondary,"1,3-Dihydro-1,3-diazine-2,4-dione-5-carboxylic acid (Uracil-5-carboxylic acid) (Isoorotic acid)"
OC(=O)C1=CNC(=O)NC1=O,4.05,0:5,carboxylic_acid:amine_secondary,"1,3-Dihydro-1,3-diazine-2,4-dione-5-carboxylic acid (Uracil-5-carboxylic acid) (Isoorotic acid)"
OC(=O)C1=C(Br)C(=O)NC(=O)N1,7.22,0:8,carboxylic_acid:amine_secondary,"5-Bromo-1,3-dihydro-1,3-diazine-2,4-dione-6-carboxylic acid (5-Bromoorotic acid)"
OC(=O)C1=C(Br)C(=O)NC(=O)N1,2.27,0:8,carboxylic_acid:amine_secondary,"5-Bromo-1,3-dihydro-1,3-diazine-2,4-dione-6-carboxylic acid (5-Bromoorotic acid)"
OC(=O)C1=C(I)C(=O)NC(=O)N1,7.52,0:8,carboxylic_acid:amine_secondary,"5-Iodo-1,3-dihydro-1,3-diazine-2,4-dione-6-carboxylic acid (5-Iodoorotic acid)"
OC(=O)C1=C(I)C(=O)NC(=O)N1,1.8,0:8,carboxylic_acid:amine_secondary,"5-Iodo-1,3-dihydro-1,3-diazine-2,4-dione-6-carboxylic acid (5-Iodoorotic acid)"
OC(=O)C1=C(C(=O)NC(=O)N1)[N+]([O-])=O,4.83,25,n_oxide,"5-Nitro-1,3-dihydro-1,3-diazine-2,4-dione-6-carboxylic acid (5-Nitroorotic acid)"
OC(=O)C(=O)Cc1ccccc1,2.33,0,carboxylic_acid,2-Oxo-3-phenylpropanoic acid (Phenylpyruvic acid)
CN(CC(O)=O)C(C)=O,3.3,1,tertiary_amine,N-Acetyl-N-Methylglycine (N-Acetylsarcosine)
COCC(O)=O,3.32,4,carboxylic_acid,Methoxyacetic acid
COCC(O)=O,3.38,4,carboxylic_acid,Methoxyacetic acid
COCC(O)=O,3.74,4,carboxylic_acid,Methoxyacetic acid
COCC(O)=O,3.544,4,carboxylic_acid,Methoxyacetic acid
COCC(O)=O,3.57,4,carboxylic_acid,Methoxyacetic acid
COCC(O)=O,3.613,4,carboxylic_acid,Methoxyacetic acid
CCOCC(O)=O,3.51,5,carboxylic_acid,Ethoxyacetic acid
CCOCC(O)=O,3.65,5,carboxylic_acid,Ethoxyacetic acid
CCCOCC(O)=O,3.59,6,carboxylic_acid,2-Propoxyacetic acid
COCCC(O)=O,4.71,5,carboxylic_acid,3-Methoxypropanoic acid
OC(=O)COc1ccccc1,2.96,0,carboxylic_acid,Phenoxyacetic acid
OC(=O)COc1ccccc1,2.94,0,carboxylic_acid,Phenoxyacetic acid
OC(=O)COc1ccccc1,2.87,0,carboxylic_acid,Phenoxyacetic acid
OC(=O)COc1ccccc1,3.56,0,carboxylic_acid,Phenoxyacetic acid
OC(=O)COc1ccccc1,3.15,0,carboxylic_acid,Phenoxyacetic acid
CC(Oc1ccccc1)C(O)=O,2.88,10,carboxylic_acid,2-Phenoxypropanoic acid
CC(Oc1ccccc1)C(O)=O,2.93,10,carboxylic_acid,2-Phenoxypropanoic acid
CCC(Oc1ccccc1)C(O)=O,2.99,11,carboxylic_acid,2-Phenoxybutanoic acid
CCC(Oc1ccccc1)C(O)=O,3.06,11,carboxylic_acid,2-Phenoxybutanoic acid
OC(=O)c1occc1,2.97,0,carboxylic_acid,Oxole-2-carboxylic acid (2-Furoic acid)
OC(=O)c1occc1,2.98,0,carboxylic_acid,Oxole-2-carboxylic acid (2-Furoic acid)
OC(=O)c1occc1,3.01,0,carboxylic_acid,Oxole-2-carboxylic acid (2-Furoic acid)
OC(=O)c1occc1,3.11,0,carboxylic_acid,Oxole-2-carboxylic acid (2-Furoic acid)
OC(=O)c1occc1,3.162,0,carboxylic_acid,Oxole-2-carboxylic acid (2-Furoic acid)
Cc1ccccc1OCC(O)=O,3.227,10,carboxylic_acid,2-Methylphenoxyacetic acid
Cc1cccc(OCC(O)=O)c1,3.203,9,carboxylic_acid,3-Methylphenoxyacetic acid
Cc1ccc(OCC(O)=O)cc1,3.215,8,carboxylic_acid,4-Methylphenoxyacetic acid
OC(=O)COc1ccccc1F,3.085,0,carboxylic_acid,2-Fluorophenoxyacetic acid
OC(=O)COc1cccc(F)c1,3.082,0,carboxylic_acid,3-Fluorophenoxyacetic acid
OC(=O)COc1ccc(F)cc1,3.13,0,carboxylic_acid,4-Fluorophenoxyacetic acid
OC(=O)COc1ccccc1Br,3.123,0,carboxylic_acid,2-Bromophenoxyacetic acid
OC(=O)COc1cccc(Br)c1,3.095,0,carboxylic_acid,3-Bromophenoxyacetic acid
OC(=O)COc1ccc(Br)cc1,3.133,0,carboxylic_acid,4-Bromophenoxyacetic acid
OC(=O)COc1ccccc1I,3.173,0,carboxylic_acid,2-Iodophenoxyacetic acid
OC(=O)COc1cccc(I)c1,3.128,0,carboxylic_acid,3-Iodophenoxyacetic acid
OC(=O)COc1ccc(I)cc1,3.159,0,carboxylic_acid,4-Iodophenoxyacetic acid
OC(=O)COc1ccccc1[N+]([O-])=O,2.896,16,n_oxide,2-Nitrophenoxyacetic acid
OC(=O)COc1cccc(c1)[N+]([O-])=O,2.951,18,n_oxide,3-Nitrophenoxyacetic acid
OC(=O)COc1ccc(cc1)[N+]([O-])=O,2.891,18,n_oxide,4-Nitrophenoxyacetic acid
Cc1cccc(C)c1OCC(O)=O,3.356,11,carboxylic_acid,"2,6-Dimethylphenoxyacetic acid"
OC(=O)COc1ccccc1C#N,2.975,18,nitrile,2-Cyanophenoxyacetic acid
OC(=O)COc1cccc(c1)C#N,3.034,20,nitrile,3-Cyanophenoxyacetic acid
OC(=O)COc1ccc(cc1)C#N,2.932,20,nitrile,4-Cyanophenoxyacetic acid
COc1ccccc1OCC(O)=O,3.231,11,carboxylic_acid,2-Methoxyphenoxyacetic acid
COc1cccc(OCC(O)=O)c1,3.142,10,carboxylic_acid,3-Methoxyphenoxyacetic acid
COc1ccc(OCC(O)=O)cc1,3.213,9,carboxylic_acid,4-Methoxyphenoxyacetic acid
COc1ccc(CC(O)=O)cc1,4.362,8,carboxylic_acid,4-Methoxyphenylacetic acid
COc1ccc(CC(O)=O)cc1OC,4.334,8,carboxylic_acid,"3,4-Dimethoxyphenylacetic acid"
COc1ccccc1C(O)=O,3.87,9,carboxylic_acid,2-Methoxybenzoic acid
COc1ccccc1C(O)=O,4.094,9,carboxylic_acid,2-Methoxybenzoic acid
COc1cccc(c1)C(O)=O,3.82,9,carboxylic_acid,3-Methoxybenzoic acid
COc1cccc(c1)C(O)=O,4.09,9,carboxylic_acid,3-Methoxybenzoic acid
COc1ccc(cc1)C(O)=O,4.26,9,carboxylic_acid,4-Methoxybenzoic acid (p-Anisic acid)
COc1ccc(cc1)C(O)=O,4.475,9,carboxylic_acid,4-Methoxybenzoic acid (p-Anisic acid)
OC(=O)c1ccccc1Oc2ccccc2,3.527,0,carboxylic_acid,2-Phenoxybenzoic acid
OC(=O)c1cccc(Oc2ccccc2)c1,3.951,0,carboxylic_acid,3-Phenoxybenzoic acid
OC(=O)c1ccc(Oc2ccccc2)cc1,4.523,0,carboxylic_acid,4-Phenoxybenzoic acid
COc1cccc(C(O)=O)c1OC,3.5,8,carboxylic_acid,"2,3-Dimethoxybenzoic acid"
OC(=O)CS,10.11,0:4,carboxylic_acid:thiol,Mercaptoacetic acid (Thioglycolic acid)
OC(=O)CS,9.96,0:4,carboxylic_acid:thiol,Mercaptoacetic acid (Thioglycolic acid)
OC(=O)CS,9.99,0:4,carboxylic_acid:thiol,Mercaptoacetic acid (Thioglycolic acid)
OC(=O)CS,10.61,0:4,carboxylic_acid:thiol,Mercaptoacetic acid (Thioglycolic acid)
OC(=O)CS,3.48,0:4,carboxylic_acid:thiol,Mercaptoacetic acid (Thioglycolic acid)
OC(=O)CS,3.44,0:4,carboxylic_acid:thiol,Mercaptoacetic acid (Thioglycolic acid)
OC(=O)CS,3.53,0:4,carboxylic_acid:thiol,Mercaptoacetic acid (Thioglycolic acid)
OC(=O)CS,3.83,0:4,carboxylic_acid:thiol,Mercaptoacetic acid (Thioglycolic acid)
OC(=O)CS,3.64,0:4,carboxylic_acid:thiol,Mercaptoacetic acid (Thioglycolic acid)
CC(O)C(O)=S,10.08,2:4,alcohol:alcohol,DL-2-Mercaptopropanoic acid (Thiolactic acid)
CC(O)C(O)=S,9.95,2:4,alcohol:alcohol,DL-2-Mercaptopropanoic acid (Thiolactic acid)
CC(O)C(O)=S,10.25,2:4,alcohol:alcohol,DL-2-Mercaptopropanoic acid (Thiolactic acid)
CC(O)C(O)=S,3.48,2:4,alcohol:alcohol,DL-2-Mercaptopropanoic acid (Thiolactic acid)
CC(O)C(O)=S,3.38,2:4,alcohol:alcohol,DL-2-Mercaptopropanoic acid (Thiolactic acid)
CC(O)C(O)=S,3.96,2:4,alcohol:alcohol,DL-2-Mercaptopropanoic acid (Thiolactic acid)
CC(O)C(O)=S,3.69,2:4,alcohol:alcohol,DL-2-Mercaptopropanoic acid (Thiolactic acid)
CC(C)(S)C(O)=O,3.9,3:5,thiol:carboxylic_acid,2-Mercapto-2-methylpropanoic acid
OC(=O)CCS,10.1,0:5,carboxylic_acid:thiol,3-Mercaptopropanoic acid
OC(=O)CCS,10.6,0:5,carboxylic_acid:thiol,3-Mercaptopropanoic acid
OC(=O)CCS,10.84,0:5,carboxylic_acid:thiol,3-Mercaptopropanoic acid
OC(=O)CCS,4.16,0:5,carboxylic_acid:thiol,3-Mercaptopropanoic acid
OC(=O)CCS,4.12,0:5,carboxylic_acid:thiol,3-Mercaptopropanoic acid
OC(=O)CCS,4.58,0:5,carboxylic_acid:thiol,3-Mercaptopropanoic acid
OC(=O)CCS,4.34,0:5,carboxylic_acid:thiol,3-Mercaptopropanoic acid
CC(=O)N[C@@H](CS)C(O)=O,9.58,8:3,carboxylic_acid:amine_secondary,N-Acetyl-L-cysteine
CC(=O)N[C@@H](CS)C(O)=O,9.36,8:3,carboxylic_acid:amine_secondary,N-Acetyl-L-cysteine
CC(=O)N[C@@H](CS)C(O)=O,9.39,8:3,carboxylic_acid:amine_secondary,N-Acetyl-L-cysteine
CC(=O)N[C@@H](CS)C(O)=O,3.11,8:3,carboxylic_acid:amine_secondary,N-Acetyl-L-cysteine
CC(=O)N[C@@H](CS)C(O)=O,3.07,8:3,carboxylic_acid:amine_secondary,N-Acetyl-L-cysteine
CC(=O)N[C@@H](C(O)=O)C(C)(C)S,10.1,6:3,carboxylic_acid:amine_secondary,N-Acetyl-D-penicillamine
CC(=O)N[C@@H](C(O)=O)C(C)(C)S,10.04,6:3,carboxylic_acid:amine_secondary,N-Acetyl-D-penicillamine
CC(=O)N[C@@H](C(O)=O)C(C)(C)S,9.77,6:3,carboxylic_acid:amine_secondary,N-Acetyl-D-penicillamine
CC(=O)N[C@@H](C(O)=O)C(C)(C)S,3.29,6:3,carboxylic_acid:amine_secondary,N-Acetyl-D-penicillamine
CC(=O)N[C@@H](C(O)=O)C(C)(C)S,3.36,6:3,carboxylic_acid:amine_secondary,N-Acetyl-D-penicillamine
CSCC(O)=O,3.55,4,carboxylic_acid,(Methylthio)acetic acid
CSCC(O)=O,3.61,4,carboxylic_acid,(Methylthio)acetic acid
CSCC(O)=O,3.72,4,carboxylic_acid,(Methylthio)acetic acid
CCSCC(O)=O,3.6,5,carboxylic_acid,(Ethylthio)acetic acid
CCSCC(O)=O,3.65,5,carboxylic_acid,(Ethylthio)acetic acid
CCSCC(O)=O,3.62,5,carboxylic_acid,(Ethylthio)acetic acid
CCCSCC(O)=O,3.62,6,carboxylic_acid,(Propylthio)acetic acid
CCCSCC(O)=O,3.77,6,carboxylic_acid,(Propylthio)acetic acid
CCCCSCC(O)=O,3.63,7,carboxylic_acid,(Butylthio)acetic acid
CCCCSCC(O)=O,3.81,7,carboxylic_acid,(Butylthio)acetic acid
CCCCCSCC(O)=O,3.64,8,carboxylic_acid,(Pentylthio)acetic acid
CCCCCCSCC(O)=O,3.65,9,carboxylic_acid,(Hexylthio)acetic acid
CC(C)SCC(O)=O,3.65,6,carboxylic_acid,(2-Propylthio)acetic acid
CC(C)SCC(O)=O,3.72,6,carboxylic_acid,(2-Propylthio)acetic acid
CC(C)(C)SCC(O)=O,3.64,7,carboxylic_acid,(2-Methyl-2-propylthio)acetic acid
OC(=O)CSCC=C,3.57,0,carboxylic_acid,(Prop-2-enylthio)acetic acid
OC(=O)CSCCC=C,3.61,0,carboxylic_acid,(But-3-enylthio)acetic acid
OC(=O)CSCCCC=C,3.63,0,carboxylic_acid,(Pent-4-enylthio)acetic acid