SMILES,pKa,Dissociable_Atoms,Functional_Group,Name,Dissociable_Atoms_Ordered,Functional_Group_Ordered,Dissociation_Order
N[C@@H](CCC(=O)N[C@@H](CS)C(=O)NCC(O)=O)C(O)=O,2.28,15:18:0:6,carboxylic_acid:carboxylic_acid:amine_primary:amine_secondary,L-5-Glutamyl-L-cysteinylglycine (Glutathione),15:18:0:6,carboxylic_acid:carboxylic_acid:amine_primary:amine_secondary,15(carboxylic_acid) > 18(carboxylic_acid) > 0(amine_primary) > 6(amine_secondary)
N[C@@H](CCC(=O)N[C@@H](CS)C(=O)NCC(O)=O)C(O)=O,2.59,15:18:0:6,carboxylic_acid:carboxylic_acid:amine_primary:amine_secondary,L-5-Glutamyl-L-cysteinylglycine (Glutathione),15:18:0:6,carboxylic_acid:carboxylic_acid:amine_primary:amine_secondary,15(carboxylic_acid) > 18(carboxylic_acid) > 0(amine_primary) > 6(amine_secondary)
OC(=O)[C@H](Cc1c[nH]cn1)NC(=O)CNC(=O)CS,8.65,0:7:10,carboxylic_acid:amine_secondary:amine_secondary,N-(Mercaptoacetyl)glycyl-L-histidine,0:7:10,carboxylic_acid:amine_secondary:amine_secondary,0(carboxylic_acid) > 7(amine_secondary) > 10(amine_secondary)
OC(=O)[C@H](Cc1c[nH]cn1)NC(=O)CNC(=O)CS,7.1,0:7:10,carboxylic_acid:amine_secondary:amine_secondary,N-(Mercaptoacetyl)glycyl-L-histidine,0:7:10,carboxylic_acid:amine_secondary:amine_secondary,0(carboxylic_acid) > 7(amine_secondary) > 10(amine_secondary)
OC(=O)[C@H](Cc1c[nH]cn1)NC(=O)CNC(=O)CS,3.47,0:7:10,carboxylic_acid:amine_secondary:amine_secondary,N-(Mercaptoacetyl)glycyl-L-histidine,0:7:10,carboxylic_acid:amine_secondary:amine_secondary,0(carboxylic_acid) > 7(amine_secondary) > 10(amine_secondary)
NCC(=O)NCC(=O)NCC(=O)NCC(O)=O,7.88,15:0,carboxylic_acid:amine_primary,Glycylglycylglycylglycine (Tetraglycine),15:0,carboxylic_acid:amine_primary,15(carboxylic_acid) > 0(amine_primary)
NCC(=O)NCC(=O)NCC(=O)NCC(O)=O,3.2,15:0,carboxylic_acid:amine_primary,Glycylglycylglycylglycine (Tetraglycine),15:0,carboxylic_acid:amine_primary,15(carboxylic_acid) > 0(amine_primary)
NCC(=O)NCC(=O)NCC(=O)NCC(O)=O,3.21,15:0,carboxylic_acid:amine_primary,Glycylglycylglycylglycine (Tetraglycine),15:0,carboxylic_acid:amine_primary,15(carboxylic_acid) > 0(amine_primary)
C[C@H](N)C(=O)NCC(=O)NCC(=O)NCC(O)=O,7.85,16:2,carboxylic_acid:amine_primary,L-Alanylglycylglycylglycine,16:2,carboxylic_acid:amine_primary,16(carboxylic_acid) > 2(amine_primary)
C[C@H](N)C(=O)NCC(=O)NCC(=O)NCC(O)=O,3.18,16:2,carboxylic_acid:amine_primary,L-Alanylglycylglycylglycine,16:2,carboxylic_acid:amine_primary,16(carboxylic_acid) > 2(amine_primary)
C[C@H](N)C(=O)N[C@@H](C)C(=O)N[C@@H](C)C(=O)N[C@@H](C)C(O)=O,7.83,19:2,carboxylic_acid:amine_primary,L-Alanyl-L-alanyl-L-alanyl-L-alanine,19:2,carboxylic_acid:amine_primary,19(carboxylic_acid) > 2(amine_primary)
C[C@H](N)C(=O)N[C@@H](C)C(=O)N[C@@H](C)C(=O)N[C@@H](C)C(O)=O,3.31,19:2,carboxylic_acid:amine_primary,L-Alanyl-L-alanyl-L-alanyl-L-alanine,19:2,carboxylic_acid:amine_primary,19(carboxylic_acid) > 2(amine_primary)
C[C@H](N)C(=O)N[C@@H](C)C(=O)N[C@H](C)C(=O)N[C@@H](C)C(O)=O,7.82,19:2,carboxylic_acid:amine_primary,L-Alanyl-L-alanyl-D-alanyl-L-alanine,19:2,carboxylic_acid:amine_primary,19(carboxylic_acid) > 2(amine_primary)
C[C@H](N)C(=O)N[C@@H](C)C(=O)N[C@H](C)C(=O)N[C@@H](C)C(O)=O,3.13,19:2,carboxylic_acid:amine_primary,L-Alanyl-L-alanyl-D-alanyl-L-alanine,19:2,carboxylic_acid:amine_primary,19(carboxylic_acid) > 2(amine_primary)
C[C@H](N)C(=O)N[C@H](C)C(=O)N[C@@H](C)C(=O)N[C@@H](C)C(O)=O,7.88,19:2,carboxylic_acid:amine_primary,L-Alanyl-D-alanyl-L-alanyl-L-alanine,19:2,carboxylic_acid:amine_primary,19(carboxylic_acid) > 2(amine_primary)
C[C@H](N)C(=O)N[C@H](C)C(=O)N[C@@H](C)C(=O)N[C@@H](C)C(O)=O,3.11,19:2,carboxylic_acid:amine_primary,L-Alanyl-D-alanyl-L-alanyl-L-alanine,19:2,carboxylic_acid:amine_primary,19(carboxylic_acid) > 2(amine_primary)
C[C@@H](N)C(=O)N[C@@H](C)C(=O)N[C@@H](C)C(=O)N[C@@H](C)C(O)=O,7.83,19:2,carboxylic_acid:amine_primary,D-Alanyl-L-alanyl-L-alanyl-L-alanine,19:2,carboxylic_acid:amine_primary,19(carboxylic_acid) > 2(amine_primary)
C[C@@H](N)C(=O)N[C@@H](C)C(=O)N[C@@H](C)C(=O)N[C@@H](C)C(O)=O,3.31,19:2,carboxylic_acid:amine_primary,D-Alanyl-L-alanyl-L-alanyl-L-alanine,19:2,carboxylic_acid:amine_primary,19(carboxylic_acid) > 2(amine_primary)
CC(C)(NC(=O)CNC(=O)CN)C(=O)NCC(O)=O,7.98,17:11,carboxylic_acid:amine_primary,Glycylglycyl-2-methylalanylglycine,17:11,carboxylic_acid:amine_primary,17(carboxylic_acid) > 11(amine_primary)
CC(C)(NC(=O)CNC(=O)CN)C(=O)NCC(O)=O,3.55,17:11,carboxylic_acid:amine_primary,Glycylglycyl-2-methylalanylglycine,17:11,carboxylic_acid:amine_primary,17(carboxylic_acid) > 11(amine_primary)
CC(C)(N)C(=O)NC(C)(C)C(=O)NC(C)(C)C(=O)NCC(O)=O,8.33,21:3,carboxylic_acid:amine_primary,2-Methylalanyl-2-methylalanyl-2-methylalanylglycine,21:3,carboxylic_acid:amine_primary,21(carboxylic_acid) > 3(amine_primary)
CC(C)(N)C(=O)NC(C)(C)C(=O)NC(C)(C)C(=O)NCC(O)=O,3.46,21:3,carboxylic_acid:amine_primary,2-Methylalanyl-2-methylalanyl-2-methylalanylglycine,21:3,carboxylic_acid:amine_primary,21(carboxylic_acid) > 3(amine_primary)
CC(C)(N)C(=O)NC(C)(C)C(=O)NC(C)(C)C(=O)NC(C)(C)C(O)=O,7.78,23:3,carboxylic_acid:amine_primary,2-Methylalanyl-2-methylalanyl-2-methylalanyl-2-methylalanine,23:3,carboxylic_acid:amine_primary,23(carboxylic_acid) > 3(amine_primary)
CC(C)(N)C(=O)NC(C)(C)C(=O)NC(C)(C)C(=O)NC(C)(C)C(O)=O,3.8,23:3,carboxylic_acid:amine_primary,2-Methylalanyl-2-methylalanyl-2-methylalanyl-2-methylalanine,23:3,carboxylic_acid:amine_primary,23(carboxylic_acid) > 3(amine_primary)
CN(CC(O)=O)C(=O)CNC(=O)CNC(=O)CN,7.92,4:17,carboxylic_acid:amine_primary,Glycylglycylglycylsarcosine,4:17,carboxylic_acid:amine_primary,4(carboxylic_acid) > 17(amine_primary)
CN(CC(O)=O)C(=O)CNC(=O)CNC(=O)CN,3.04,4:17,carboxylic_acid:amine_primary,Glycylglycylglycylsarcosine,4:17,carboxylic_acid:amine_primary,4(carboxylic_acid) > 17(amine_primary)
CN(CC(=O)NCC(O)=O)C(=O)CNC(=O)CN,7.97,8:17,carboxylic_acid:amine_primary,Glycylglycylsarcosylglycine,8:17,carboxylic_acid:amine_primary,8(carboxylic_acid) > 17(amine_primary)
CN(CC(=O)NCC(O)=O)C(=O)CNC(=O)CN,3.34,8:17,carboxylic_acid:amine_primary,Glycylglycylsarcosylglycine,8:17,carboxylic_acid:amine_primary,8(carboxylic_acid) > 17(amine_primary)
CN(CC(=O)NCC(=O)NCC(O)=O)C(=O)CN,8.28,12:17,carboxylic_acid:amine_primary,Glycylsarcosylglycylglycine,12:17,carboxylic_acid:amine_primary,12(carboxylic_acid) > 17(amine_primary)
CN(CC(=O)NCC(=O)NCC(O)=O)C(=O)CN,3.35,12:17,carboxylic_acid:amine_primary,Glycylsarcosylglycylglycine,12:17,carboxylic_acid:amine_primary,12(carboxylic_acid) > 17(amine_primary)
CNCC(=O)NCC(=O)NCC(=O)NCC(O)=O,8.39,16:1,carboxylic_acid:amine_secondary,Sarcosylglycylglycylglycine,16:1,carboxylic_acid:amine_secondary,16(carboxylic_acid) > 1(amine_secondary)
CNCC(=O)NCC(=O)NCC(=O)NCC(O)=O,3.34,16:1,carboxylic_acid:amine_secondary,Sarcosylglycylglycylglycine,16:1,carboxylic_acid:amine_secondary,16(carboxylic_acid) > 1(amine_secondary)
NCC(=O)NCC(=O)NCC(=O)N1CCC[C@H]1C(O)=O,8.04,18:0,carboxylic_acid:amine_primary,Glycylglycylglycyl-L-proline,18:0,carboxylic_acid:amine_primary,18(carboxylic_acid) > 0(amine_primary)
NCC(=O)NCC(=O)NCC(=O)N1CCC[C@H]1C(O)=O,2.91,18:0,carboxylic_acid:amine_primary,Glycylglycylglycyl-L-proline,18:0,carboxylic_acid:amine_primary,18(carboxylic_acid) > 0(amine_primary)
NCC(=O)NCC(=O)N1CCC[C@H]1C(=O)NCC(O)=O,8.06,18:0,carboxylic_acid:amine_primary,Glycylglycyl-L-prolylglycine,18:0,carboxylic_acid:amine_primary,18(carboxylic_acid) > 0(amine_primary)
NCC(=O)NCC(=O)N1CCC[C@H]1C(=O)NCC(O)=O,3.17,18:0,carboxylic_acid:amine_primary,Glycylglycyl-L-prolylglycine,18:0,carboxylic_acid:amine_primary,18(carboxylic_acid) > 0(amine_primary)
NCC(=O)N1CCC[C@H]1C(=O)NCC(=O)NCC(O)=O,8.25,18:0,carboxylic_acid:amine_primary,Glycyl-L-prolylglycylglycine,18:0,carboxylic_acid:amine_primary,18(carboxylic_acid) > 0(amine_primary)
NCC(=O)N1CCC[C@H]1C(=O)NCC(=O)NCC(O)=O,3.11,18:0,carboxylic_acid:amine_primary,Glycyl-L-prolylglycylglycine,18:0,carboxylic_acid:amine_primary,18(carboxylic_acid) > 0(amine_primary)
OC(=O)CNC(=O)CNC(=O)CNC(=O)[C@@H]1CCCN1,8.67,0:4,carboxylic_acid:amine_secondary,L-Prolylglycylglycylglycine,0:4,carboxylic_acid:amine_secondary,0(carboxylic_acid) > 4(amine_secondary)
OC(=O)CNC(=O)CNC(=O)CNC(=O)[C@@H]1CCCN1,3.27,0:4,carboxylic_acid:amine_secondary,L-Prolylglycylglycylglycine,0:4,carboxylic_acid:amine_secondary,0(carboxylic_acid) > 4(amine_secondary)
C[C@H](N)C(=O)N[C@@H](C)C(=O)N[C@@H](C)C(=O)N1CCC[C@H]1C(O)=O,8.2,21:2,carboxylic_acid:amine_primary,L-Alanyl-L-alanyl-L-alanyl-L-proline,21:2,carboxylic_acid:amine_primary,21(carboxylic_acid) > 2(amine_primary)
C[C@H](N)C(=O)N[C@@H](C)C(=O)N[C@@H](C)C(=O)N1CCC[C@H]1C(O)=O,3.16,21:2,carboxylic_acid:amine_primary,L-Alanyl-L-alanyl-L-alanyl-L-proline,21:2,carboxylic_acid:amine_primary,21(carboxylic_acid) > 2(amine_primary)
C[C@H](N)C(=O)N[C@@H](C)C(=O)N1CCC[C@H]1C(=O)N[C@@H](C)C(O)=O,8.2,21:2,carboxylic_acid:amine_primary,L-Alanyl-L-alanyl-L-prolyl-L-alanine,21:2,carboxylic_acid:amine_primary,21(carboxylic_acid) > 2(amine_primary)
C[C@H](N)C(=O)N[C@@H](C)C(=O)N1CCC[C@H]1C(=O)N[C@@H](C)C(O)=O,3.34,21:2,carboxylic_acid:amine_primary,L-Alanyl-L-alanyl-L-prolyl-L-alanine,21:2,carboxylic_acid:amine_primary,21(carboxylic_acid) > 2(amine_primary)
C[C@H](N)C(=O)N1CCC[C@H]1C(=O)N[C@@H](C)C(=O)N[C@@H](C)C(O)=O,8.28,21:2,carboxylic_acid:amine_primary,L-Alanyl-L-prolyl-L-alanyl-L-alanine,21:2,carboxylic_acid:amine_primary,21(carboxylic_acid) > 2(amine_primary)
C[C@H](N)C(=O)N1CCC[C@H]1C(=O)N[C@@H](C)C(=O)N[C@@H](C)C(O)=O,3.31,21:2,carboxylic_acid:amine_primary,L-Alanyl-L-prolyl-L-alanyl-L-alanine,21:2,carboxylic_acid:amine_primary,21(carboxylic_acid) > 2(amine_primary)
C[C@H](NC(=O)[C@H](C)NC(=O)[C@H](C)NC(=O)[C@@H]1CCCN1)C(O)=O,8.37,21:2,carboxylic_acid:amine_secondary,L-Prolyl-L-alanyl-L-alanyl-L-alanine,21:2,carboxylic_acid:amine_secondary,21(carboxylic_acid) > 2(amine_secondary)
C[C@H](NC(=O)[C@H](C)NC(=O)[C@H](C)NC(=O)[C@@H]1CCCN1)C(O)=O,3.1,21:2,carboxylic_acid:amine_secondary,L-Prolyl-L-alanyl-L-alanyl-L-alanine,21:2,carboxylic_acid:amine_secondary,21(carboxylic_acid) > 2(amine_secondary)
N[C@@H](Cc1ccccc1)C(=O)N2CCC[C@H]2C(=O)NCC(=O)NCC(O)=O,7.75,25:0,carboxylic_acid:amine_primary,L-Phenylalanyl-L-prolylglycylglycine,25:0,carboxylic_acid:amine_primary,25(carboxylic_acid) > 0(amine_primary)
N[C@@H](Cc1ccccc1)C(=O)N2CCC[C@H]2C(=O)NCC(=O)NCC(O)=O,3.11,25:0,carboxylic_acid:amine_primary,L-Phenylalanyl-L-prolylglycylglycine,25:0,carboxylic_acid:amine_primary,25(carboxylic_acid) > 0(amine_primary)
C[C@H](N)C(=O)N[C@@H](C)C(=O)N[C@@H](C)C(=O)N[C@@H](CC(O)=O)C(O)=O,8.05,19:22:2,carboxylic_acid:carboxylic_acid:amine_primary,L-Alanyl-L-alanyl-L-alanyl-L-aspartic acid,19:22:2,carboxylic_acid:carboxylic_acid:amine_primary,19(carboxylic_acid) > 22(carboxylic_acid) > 2(amine_primary)
C[C@H](N)C(=O)N[C@@H](C)C(=O)N[C@@H](C)C(=O)N[C@@H](CC(O)=O)C(O)=O,4.01,19:22:2,carboxylic_acid:carboxylic_acid:amine_primary,L-Alanyl-L-alanyl-L-alanyl-L-aspartic acid,19:22:2,carboxylic_acid:carboxylic_acid:amine_primary,19(carboxylic_acid) > 22(carboxylic_acid) > 2(amine_primary)
C[C@H](N)C(=O)N[C@@H](C)C(=O)N[C@@H](C)C(=O)N[C@@H](CC(O)=O)C(O)=O,3.15,19:22:2,carboxylic_acid:carboxylic_acid:amine_primary,L-Alanyl-L-alanyl-L-alanyl-L-aspartic acid,19:22:2,carboxylic_acid:carboxylic_acid:amine_primary,19(carboxylic_acid) > 22(carboxylic_acid) > 2(amine_primary)
C[C@H](N)C(=O)N[C@@H](C)C(=O)N[C@@H](CC(O)=O)C(=O)N[C@@H](C)C(O)=O,8.29,14:22:2,carboxylic_acid:carboxylic_acid:amine_primary,L-Alanyl-L-alanyl-L-aspartyl-L-alanine,14:22:2,carboxylic_acid:carboxylic_acid:amine_primary,14(carboxylic_acid) > 22(carboxylic_acid) > 2(amine_primary)
C[C@H](N)C(=O)N[C@@H](C)C(=O)N[C@@H](CC(O)=O)C(=O)N[C@@H](C)C(O)=O,4.22,14:22:2,carboxylic_acid:carboxylic_acid:amine_primary,L-Alanyl-L-alanyl-L-aspartyl-L-alanine,14:22:2,carboxylic_acid:carboxylic_acid:amine_primary,14(carboxylic_acid) > 22(carboxylic_acid) > 2(amine_primary)
C[C@H](N)C(=O)N[C@@H](C)C(=O)N[C@@H](CC(O)=O)C(=O)N[C@@H](C)C(O)=O,3.29,14:22:2,carboxylic_acid:carboxylic_acid:amine_primary,L-Alanyl-L-alanyl-L-aspartyl-L-alanine,14:22:2,carboxylic_acid:carboxylic_acid:amine_primary,14(carboxylic_acid) > 22(carboxylic_acid) > 2(amine_primary)
C[C@H](N)C(=O)N[C@@H](CC(O)=O)C(=O)N[C@@H](C)C(=O)N[C@@H](C)C(O)=O,7.96,9:22:2,carboxylic_acid:carboxylic_acid:amine_primary,L-Alanyl-L-aspartyl-L-alanyl-L-alanine,9:22:2,carboxylic_acid:carboxylic_acid:amine_primary,9(carboxylic_acid) > 22(carboxylic_acid) > 2(amine_primary)
C[C@H](N)C(=O)N[C@@H](CC(O)=O)C(=O)N[C@@H](C)C(=O)N[C@@H](C)C(O)=O,3.85,9:22:2,carboxylic_acid:carboxylic_acid:amine_primary,L-Alanyl-L-aspartyl-L-alanyl-L-alanine,9:22:2,carboxylic_acid:carboxylic_acid:amine_primary,9(carboxylic_acid) > 22(carboxylic_acid) > 2(amine_primary)
C[C@H](N)C(=O)N[C@@H](CC(O)=O)C(=O)N[C@@H](C)C(=O)N[C@@H](C)C(O)=O,3.22,9:22:2,carboxylic_acid:carboxylic_acid:amine_primary,L-Alanyl-L-aspartyl-L-alanyl-L-alanine,9:22:2,carboxylic_acid:carboxylic_acid:amine_primary,9(carboxylic_acid) > 22(carboxylic_acid) > 2(amine_primary)
C[C@H](NC(=O)[C@H](C)NC(=O)[C@H](C)NC(=O)[C@@H](N)CC(O)=O)C(O)=O,7.69,19:22:16,carboxylic_acid:carboxylic_acid:amine_primary,L-Aspartyl-L-alanyl-L-alanyl-L-alanine,19:22:16,carboxylic_acid:carboxylic_acid:amine_primary,19(carboxylic_acid) > 22(carboxylic_acid) > 16(amine_primary)
C[C@H](NC(=O)[C@H](C)NC(=O)[C@H](C)NC(=O)[C@@H](N)CC(O)=O)C(O)=O,3.6,19:22:16,carboxylic_acid:carboxylic_acid:amine_primary,L-Aspartyl-L-alanyl-L-alanyl-L-alanine,19:22:16,carboxylic_acid:carboxylic_acid:amine_primary,19(carboxylic_acid) > 22(carboxylic_acid) > 16(amine_primary)
C[C@H](NC(=O)[C@H](C)NC(=O)[C@H](C)NC(=O)[C@@H](N)CC(O)=O)C(O)=O,3.07,19:22:16,carboxylic_acid:carboxylic_acid:amine_primary,L-Aspartyl-L-alanyl-L-alanyl-L-alanine,19:22:16,carboxylic_acid:carboxylic_acid:amine_primary,19(carboxylic_acid) > 22(carboxylic_acid) > 16(amine_primary)
C[C@H](N)C(=O)N[C@@H](C)C(=O)N[C@@H](CCC(O)=O)C(=O)N[C@@H](C)C(O)=O,8.1,15:23:2,carboxylic_acid:carboxylic_acid:amine_primary,L-Alanyl-L-alanyl-L-glutamyl-L-alanine,15:23:2,carboxylic_acid:carboxylic_acid:amine_primary,15(carboxylic_acid) > 23(carboxylic_acid) > 2(amine_primary)
C[C@H](N)C(=O)N[C@@H](C)C(=O)N[C@@H](CCC(O)=O)C(=O)N[C@@H](C)C(O)=O,4.23,15:23:2,carboxylic_acid:carboxylic_acid:amine_primary,L-Alanyl-L-alanyl-L-glutamyl-L-alanine,15:23:2,carboxylic_acid:carboxylic_acid:amine_primary,15(carboxylic_acid) > 23(carboxylic_acid) > 2(amine_primary)
C[C@H](N)C(=O)N[C@@H](C)C(=O)N[C@@H](CCC(O)=O)C(=O)N[C@@H](C)C(O)=O,3.25,15:23:2,carboxylic_acid:carboxylic_acid:amine_primary,L-Alanyl-L-alanyl-L-glutamyl-L-alanine,15:23:2,carboxylic_acid:carboxylic_acid:amine_primary,15(carboxylic_acid) > 23(carboxylic_acid) > 2(amine_primary)
C[C@H](N)C(=O)N[C@@H](CCC(O)=O)C(=O)N[C@@H](C)C(=O)N[C@@H](C)C(O)=O,7.9,10:23:2,carboxylic_acid:carboxylic_acid:amine_primary,L-Alanyl-L-glutamyl-L-alanyl-L-alanine,10:23:2,carboxylic_acid:carboxylic_acid:amine_primary,10(carboxylic_acid) > 23(carboxylic_acid) > 2(amine_primary)
C[C@H](N)C(=O)N[C@@H](CCC(O)=O)C(=O)N[C@@H](C)C(=O)N[C@@H](C)C(O)=O,4.07,10:23:2,carboxylic_acid:carboxylic_acid:amine_primary,L-Alanyl-L-glutamyl-L-alanyl-L-alanine,10:23:2,carboxylic_acid:carboxylic_acid:amine_primary,10(carboxylic_acid) > 23(carboxylic_acid) > 2(amine_primary)
C[C@H](N)C(=O)N[C@@H](CCC(O)=O)C(=O)N[C@@H](C)C(=O)N[C@@H](C)C(O)=O,3.18,10:23:2,carboxylic_acid:carboxylic_acid:amine_primary,L-Alanyl-L-glutamyl-L-alanyl-L-alanine,10:23:2,carboxylic_acid:carboxylic_acid:amine_primary,10(carboxylic_acid) > 23(carboxylic_acid) > 2(amine_primary)
C[C@H](NC(=O)[C@H](C)NC(=O)[C@H](C)NC(=O)[C@@H](N)CCC(O)=O)C(O)=O,7.77,20:23:16,carboxylic_acid:carboxylic_acid:amine_primary,L-Glutamyl-L-alanyl-L-alanyl-L-alanine,20:23:16,carboxylic_acid:carboxylic_acid:amine_primary,20(carboxylic_acid) > 23(carboxylic_acid) > 16(amine_primary)
C[C@H](NC(=O)[C@H](C)NC(=O)[C@H](C)NC(=O)[C@@H](N)CCC(O)=O)C(O)=O,4.08,20:23:16,carboxylic_acid:carboxylic_acid:amine_primary,L-Glutamyl-L-alanyl-L-alanyl-L-alanine,20:23:16,carboxylic_acid:carboxylic_acid:amine_primary,20(carboxylic_acid) > 23(carboxylic_acid) > 16(amine_primary)
C[C@H](NC(=O)[C@H](C)NC(=O)[C@H](C)NC(=O)[C@@H](N)CCC(O)=O)C(O)=O,3.13,20:23:16,carboxylic_acid:carboxylic_acid:amine_primary,L-Glutamyl-L-alanyl-L-alanyl-L-alanine,20:23:16,carboxylic_acid:carboxylic_acid:amine_primary,20(carboxylic_acid) > 23(carboxylic_acid) > 16(amine_primary)
C[C@H](N)C(=O)N[C@@H](CC(O)=O)C(=O)N[C@@H](CC(O)=O)C(=O)N[C@@H](C)C(O)=O,8.3,9:17:25:2,carboxylic_acid:carboxylic_acid:carboxylic_acid:amine_primary,L-Alanyl-L-aspartyl-L-aspartyl-L-alanine,9:17:25:2,carboxylic_acid:carboxylic_acid:carboxylic_acid:amine_primary,9(carboxylic_acid) > 17(carboxylic_acid) > 25(carboxylic_acid) > 2(amine_primary)
C[C@H](N)C(=O)N[C@@H](CC(O)=O)C(=O)N[C@@H](CC(O)=O)C(=O)N[C@@H](C)C(O)=O,4.35,9:17:25:2,carboxylic_acid:carboxylic_acid:carboxylic_acid:amine_primary,L-Alanyl-L-aspartyl-L-aspartyl-L-alanine,9:17:25:2,carboxylic_acid:carboxylic_acid:carboxylic_acid:amine_primary,9(carboxylic_acid) > 17(carboxylic_acid) > 25(carboxylic_acid) > 2(amine_primary)
C[C@H](N)C(=O)N[C@@H](CC(O)=O)C(=O)N[C@@H](CC(O)=O)C(=O)N[C@@H](C)C(O)=O,3.5,9:17:25:2,carboxylic_acid:carboxylic_acid:carboxylic_acid:amine_primary,L-Alanyl-L-aspartyl-L-aspartyl-L-alanine,9:17:25:2,carboxylic_acid:carboxylic_acid:carboxylic_acid:amine_primary,9(carboxylic_acid) > 17(carboxylic_acid) > 25(carboxylic_acid) > 2(amine_primary)
C[C@H](N)C(=O)N[C@@H](CC(O)=O)C(=O)N[C@@H](CC(O)=O)C(=O)N[C@@H](C)C(O)=O,2.93,9:17:25:2,carboxylic_acid:carboxylic_acid:carboxylic_acid:amine_primary,L-Alanyl-L-aspartyl-L-aspartyl-L-alanine,9:17:25:2,carboxylic_acid:carboxylic_acid:carboxylic_acid:amine_primary,9(carboxylic_acid) > 17(carboxylic_acid) > 25(carboxylic_acid) > 2(amine_primary)
C[C@H](NC(=O)[C@H](C)NC(=O)[C@@H](N)CC(O)=O)C(=O)N[C@@H](CC(O)=O)C(O)=O,8.0,14:22:25:11,carboxylic_acid:carboxylic_acid:carboxylic_acid:amine_primary,L-Aspartyl-L-alanyl-L-alanyl-L-aspartic acid,14:22:25:11,carboxylic_acid:carboxylic_acid:carboxylic_acid:amine_primary,14(carboxylic_acid) > 22(carboxylic_acid) > 25(carboxylic_acid) > 11(amine_primary)
C[C@H](NC(=O)[C@H](C)NC(=O)[C@@H](N)CC(O)=O)C(=O)N[C@@H](CC(O)=O)C(O)=O,4.64,14:22:25:11,carboxylic_acid:carboxylic_acid:carboxylic_acid:amine_primary,L-Aspartyl-L-alanyl-L-alanyl-L-aspartic acid,14:22:25:11,carboxylic_acid:carboxylic_acid:carboxylic_acid:amine_primary,14(carboxylic_acid) > 22(carboxylic_acid) > 25(carboxylic_acid) > 11(amine_primary)
C[C@H](NC(=O)[C@H](C)NC(=O)[C@@H](N)CC(O)=O)C(=O)N[C@@H](CC(O)=O)C(O)=O,3.26,14:22:25:11,carboxylic_acid:carboxylic_acid:carboxylic_acid:amine_primary,L-Aspartyl-L-alanyl-L-alanyl-L-aspartic acid,14:22:25:11,carboxylic_acid:carboxylic_acid:carboxylic_acid:amine_primary,14(carboxylic_acid) > 22(carboxylic_acid) > 25(carboxylic_acid) > 11(amine_primary)
C[C@H](NC(=O)[C@H](C)NC(=O)[C@@H](N)CC(O)=O)C(=O)N[C@@H](CC(O)=O)C(O)=O,3.12,14:22:25:11,carboxylic_acid:carboxylic_acid:carboxylic_acid:amine_primary,L-Aspartyl-L-alanyl-L-alanyl-L-aspartic acid,14:22:25:11,carboxylic_acid:carboxylic_acid:carboxylic_acid:amine_primary,14(carboxylic_acid) > 22(carboxylic_acid) > 25(carboxylic_acid) > 11(amine_primary)
C[C@H](N)C(=O)N[C@@H](CC(O)=O)C(=O)N[C@@H](C)C(=O)N[C@@H](CC(O)=O)C(O)=O,8.28,9:22:25:2,carboxylic_acid:carboxylic_acid:carboxylic_acid:amine_primary,L-Alanyl-L-aspartyl-L-alanyl-L-aspartic acid,9:22:25:2,carboxylic_acid:carboxylic_acid:carboxylic_acid:amine_primary,9(carboxylic_acid) > 22(carboxylic_acid) > 25(carboxylic_acid) > 2(amine_primary)
C[C@H](N)C(=O)N[C@@H](CC(O)=O)C(=O)N[C@@H](C)C(=O)N[C@@H](CC(O)=O)C(O)=O,4.63,9:22:25:2,carboxylic_acid:carboxylic_acid:carboxylic_acid:amine_primary,L-Alanyl-L-aspartyl-L-alanyl-L-aspartic acid,9:22:25:2,carboxylic_acid:carboxylic_acid:carboxylic_acid:amine_primary,9(carboxylic_acid) > 22(carboxylic_acid) > 25(carboxylic_acid) > 2(amine_primary)