SMILES,pKa,Dissociable_Atoms,Functional_Group,Name,Dissociable_Atoms_Ordered,Functional_Group_Ordered,Dissociation_Order
NCCc1ccc(O)cc1,9.33,0:7,amine_primary:phenol,4-(2-Aminoethyl)phenol (Tyramine),7:0,phenol:amine_primary,7(phenol) > 0(amine_primary)
NCCc1ccc(O)cc1,9.45,0:7,amine_primary:phenol,4-(2-Aminoethyl)phenol (Tyramine),7:0,phenol:amine_primary,7(phenol) > 0(amine_primary)
NC[C@H](O)c1ccc(O)cc1,9.88,0:8,amine_primary:phenol,DL-2-Amino-1-(4-hydroxyphenyl)ethanol (Octopamine),8:0,phenol:amine_primary,8(phenol) > 0(amine_primary)
NC[C@H](O)c1ccc(O)cc1,9.94,0:8,amine_primary:phenol,DL-2-Amino-1-(4-hydroxyphenyl)ethanol (Octopamine),8:0,phenol:amine_primary,8(phenol) > 0(amine_primary)
NC[C@H](O)c1ccc(O)cc1,8.8,0:8,amine_primary:phenol,DL-2-Amino-1-(4-hydroxyphenyl)ethanol (Octopamine),8:0,phenol:amine_primary,8(phenol) > 0(amine_primary)
NC[C@H](O)c1ccc(O)cc1,8.89,0:8,amine_primary:phenol,DL-2-Amino-1-(4-hydroxyphenyl)ethanol (Octopamine),8:0,phenol:amine_primary,8(phenol) > 0(amine_primary)
N[C@H](CO)Cc1ccc(O)cc1,9.98,0:9,amine_primary:phenol,DL-2-Amino-3-(4-hydroxyphenyl)propanol (Tyrosinol),9:0,phenol:amine_primary,9(phenol) > 0(amine_primary)
N[C@H](CO)Cc1ccc(O)cc1,8.94,0:9,amine_primary:phenol,DL-2-Amino-3-(4-hydroxyphenyl)propanol (Tyrosinol),9:0,phenol:amine_primary,9(phenol) > 0(amine_primary)
COc1cc(CCN)ccc1O,10.47,7:11,amine_primary:phenol,4-(2-Aminoethyl)-2-methoxyphenol,11:7,phenol:amine_primary,11(phenol) > 7(amine_primary)
COc1cc(CCN)ccc1O,9.34,7:11,amine_primary:phenol,4-(2-Aminoethyl)-2-methoxyphenol,11:7,phenol:amine_primary,11(phenol) > 7(amine_primary)
COc1ccc(CCN)cc1O,10.38,8:11,amine_primary:phenol,5-(2-Aminoethyl)-2-methoxyphenol,11:8,phenol:amine_primary,11(phenol) > 8(amine_primary)
COc1ccc(CCN)cc1O,9.23,8:11,amine_primary:phenol,5-(2-Aminoethyl)-2-methoxyphenol,11:8,phenol:amine_primary,11(phenol) > 8(amine_primary)
COC(=O)C(N)Cc1ccc(O)cc1,9.89,5:11,amine_primary:phenol,DL-Tyrosine methyl ester,11:5,phenol:amine_primary,11(phenol) > 5(amine_primary)
COC(=O)C(N)Cc1ccc(O)cc1,7.09,5:11,amine_primary:phenol,DL-Tyrosine methyl ester,11:5,phenol:amine_primary,11(phenol) > 5(amine_primary)
CCOC(=O)[C@@H](N)Cc1ccc(O)cc1,9.68,6:12,amine_primary:phenol,L-Tyrosine ethyl ester,12:6,phenol:amine_primary,12(phenol) > 6(amine_primary)
CCOC(=O)[C@@H](N)Cc1ccc(O)cc1,9.71,6:12,amine_primary:phenol,L-Tyrosine ethyl ester,12:6,phenol:amine_primary,12(phenol) > 6(amine_primary)
CCOC(=O)[C@@H](N)Cc1ccc(O)cc1,7.21,6:12,amine_primary:phenol,L-Tyrosine ethyl ester,12:6,phenol:amine_primary,12(phenol) > 6(amine_primary)
CCOC(=O)[C@@H](N)Cc1ccc(O)cc1,7.37,6:12,amine_primary:phenol,L-Tyrosine ethyl ester,12:6,phenol:amine_primary,12(phenol) > 6(amine_primary)
N[C@@H](Cc1ccc(O)cc1)C(N)=O,9.83,0:11,amine_primary:amine_primary,L-Tyrosinamide,0:11,amine_primary:amine_primary,0(amine_primary) > 11(amine_primary)
N[C@@H](Cc1ccc(O)cc1)C(N)=O,7.42,0:11,amine_primary:amine_primary,L-Tyrosinamide,0:11,amine_primary:amine_primary,0(amine_primary) > 11(amine_primary)
CNC(=O)[C@H](Cc1ccc(O)cc1)NC(=O)CNC(=O)CN,9.85,21:1,amine_primary:amine_secondary,Glycylglycyl-L-tyrosine methylamide,21:1,amine_primary:amine_secondary,21(amine_primary) > 1(amine_secondary)
CNC(=O)[C@H](Cc1ccc(O)cc1)NC(=O)CNC(=O)CN,7.94,21:1,amine_primary:amine_secondary,Glycylglycyl-L-tyrosine methylamide,21:1,amine_primary:amine_secondary,21(amine_primary) > 1(amine_secondary)
CNC(=O)[C@H](CCSC)NC(=O)[C@H](Cc1ccccc1)NC(=O)CNC(=O)CNC(=O)[C@@H](N)Cc2ccc(O)cc2,9.78,32:1,amine_primary:amine_secondary,L-Tyrosylglycylglycyl-L-phenylalanyl-L-methionine methylamide,32:1,amine_primary:amine_secondary,32(amine_primary) > 1(amine_secondary)
CNC(=O)[C@H](CCSC)NC(=O)[C@H](Cc1ccccc1)NC(=O)CNC(=O)CNC(=O)[C@@H](N)Cc2ccc(O)cc2,7.01,32:1,amine_primary:amine_secondary,L-Tyrosylglycylglycyl-L-phenylalanyl-L-methionine methylamide,32:1,amine_primary:amine_secondary,32(amine_primary) > 1(amine_secondary)
NCCc1ccc(O)c(O)c1,13.1,0:7:9,amine_primary:phenol:phenol,"2-(3,4-Dihydroxyphenyl)ethylamine (Dopamine)",7:9:0,phenol:phenol:amine_primary,7(phenol) > 9(phenol) > 0(amine_primary)
NCCc1ccc(O)c(O)c1,13.4,0:7:9,amine_primary:phenol:phenol,"2-(3,4-Dihydroxyphenyl)ethylamine (Dopamine)",7:9:0,phenol:phenol:amine_primary,7(phenol) > 9(phenol) > 0(amine_primary)
NCCc1ccc(O)c(O)c1,10.41,0:7:9,amine_primary:phenol:phenol,"2-(3,4-Dihydroxyphenyl)ethylamine (Dopamine)",7:9:0,phenol:phenol:amine_primary,7(phenol) > 9(phenol) > 0(amine_primary)
NCCc1ccc(O)c(O)c1,10.6,0:7:9,amine_primary:phenol:phenol,"2-(3,4-Dihydroxyphenyl)ethylamine (Dopamine)",7:9:0,phenol:phenol:amine_primary,7(phenol) > 9(phenol) > 0(amine_primary)
NCCc1ccc(O)c(O)c1,10.48,0:7:9,amine_primary:phenol:phenol,"2-(3,4-Dihydroxyphenyl)ethylamine (Dopamine)",7:9:0,phenol:phenol:amine_primary,7(phenol) > 9(phenol) > 0(amine_primary)
NCCc1ccc(O)c(O)c1,10.52,0:7:9,amine_primary:phenol:phenol,"2-(3,4-Dihydroxyphenyl)ethylamine (Dopamine)",7:9:0,phenol:phenol:amine_primary,7(phenol) > 9(phenol) > 0(amine_primary)
NCCc1ccc(O)c(O)c1,8.88,0:7:9,amine_primary:phenol:phenol,"2-(3,4-Dihydroxyphenyl)ethylamine (Dopamine)",7:9:0,phenol:phenol:amine_primary,7(phenol) > 9(phenol) > 0(amine_primary)
NCCc1ccc(O)c(O)c1,9.06,0:7:9,amine_primary:phenol:phenol,"2-(3,4-Dihydroxyphenyl)ethylamine (Dopamine)",7:9:0,phenol:phenol:amine_primary,7(phenol) > 9(phenol) > 0(amine_primary)
NCCc1ccc(O)c(O)c1,8.93,0:7:9,amine_primary:phenol:phenol,"2-(3,4-Dihydroxyphenyl)ethylamine (Dopamine)",7:9:0,phenol:phenol:amine_primary,7(phenol) > 9(phenol) > 0(amine_primary)
NCCc1ccc(O)c(O)c1,9.0,0:7:9,amine_primary:phenol:phenol,"2-(3,4-Dihydroxyphenyl)ethylamine (Dopamine)",7:9:0,phenol:phenol:amine_primary,7(phenol) > 9(phenol) > 0(amine_primary)
NCC(O)c1ccc(O)c(O)c1,12.9,0:8:10,amine_primary:phenol:phenol,"L-2-Amino-1-(3,4-Dihydroxyphenyl)ethanol (Noradrenaline) (Norepinephrine)",8:10:0,phenol:phenol:amine_primary,8(phenol) > 10(phenol) > 0(amine_primary)
NCC(O)c1ccc(O)c(O)c1,9.62,0:8:10,amine_primary:phenol:phenol,"L-2-Amino-1-(3,4-Dihydroxyphenyl)ethanol (Noradrenaline) (Norepinephrine)",8:10:0,phenol:phenol:amine_primary,8(phenol) > 10(phenol) > 0(amine_primary)
NCC(O)c1ccc(O)c(O)c1,9.59,0:8:10,amine_primary:phenol:phenol,"L-2-Amino-1-(3,4-Dihydroxyphenyl)ethanol (Noradrenaline) (Norepinephrine)",8:10:0,phenol:phenol:amine_primary,8(phenol) > 10(phenol) > 0(amine_primary)
NCC(O)c1ccc(O)c(O)c1,9.73,0:8:10,amine_primary:phenol:phenol,"L-2-Amino-1-(3,4-Dihydroxyphenyl)ethanol (Noradrenaline) (Norepinephrine)",8:10:0,phenol:phenol:amine_primary,8(phenol) > 10(phenol) > 0(amine_primary)
NCC(O)c1ccc(O)c(O)c1,8.61,0:8:10,amine_primary:phenol:phenol,"L-2-Amino-1-(3,4-Dihydroxyphenyl)ethanol (Noradrenaline) (Norepinephrine)",8:10:0,phenol:phenol:amine_primary,8(phenol) > 10(phenol) > 0(amine_primary)
NCC(O)c1ccc(O)c(O)c1,8.73,0:8:10,amine_primary:phenol:phenol,"L-2-Amino-1-(3,4-Dihydroxyphenyl)ethanol (Noradrenaline) (Norepinephrine)",8:10:0,phenol:phenol:amine_primary,8(phenol) > 10(phenol) > 0(amine_primary)
NCC(O)c1ccc(O)c(O)c1,8.57,0:8:10,amine_primary:phenol:phenol,"L-2-Amino-1-(3,4-Dihydroxyphenyl)ethanol (Noradrenaline) (Norepinephrine)",8:10:0,phenol:phenol:amine_primary,8(phenol) > 10(phenol) > 0(amine_primary)
NCC(=O)NO,9.18,0:4,amine_primary:amine_secondary,Aminoacetohydroxamic acid (Glycinehydroxamic acid),0:4,amine_primary:amine_secondary,0(amine_primary) > 4(amine_secondary)
NCC(=O)NO,9.26,0:4,amine_primary:amine_secondary,Aminoacetohydroxamic acid (Glycinehydroxamic acid),0:4,amine_primary:amine_secondary,0(amine_primary) > 4(amine_secondary)
NCC(=O)NO,9.1,0:4,amine_primary:amine_secondary,Aminoacetohydroxamic acid (Glycinehydroxamic acid),0:4,amine_primary:amine_secondary,0(amine_primary) > 4(amine_secondary)
NCC(=O)NO,7.45,0:4,amine_primary:amine_secondary,Aminoacetohydroxamic acid (Glycinehydroxamic acid),0:4,amine_primary:amine_secondary,0(amine_primary) > 4(amine_secondary)
NCC(=O)NO,7.5,0:4,amine_primary:amine_secondary,Aminoacetohydroxamic acid (Glycinehydroxamic acid),0:4,amine_primary:amine_secondary,0(amine_primary) > 4(amine_secondary)
NCC(=O)NO,7.48,0:4,amine_primary:amine_secondary,Aminoacetohydroxamic acid (Glycinehydroxamic acid),0:4,amine_primary:amine_secondary,0(amine_primary) > 4(amine_secondary)
C[C@H](N)C(=O)NO,9.15,2:5,amine_primary:amine_secondary,L-2-Aminopropanohydroxamic acid (Alaninehydroxamic acid),2:5,amine_primary:amine_secondary,2(amine_primary) > 5(amine_secondary)
C[C@H](N)C(=O)NO,9.18,2:5,amine_primary:amine_secondary,L-2-Aminopropanohydroxamic acid (Alaninehydroxamic acid),2:5,amine_primary:amine_secondary,2(amine_primary) > 5(amine_secondary)
C[C@H](N)C(=O)NO,9.19,2:5,amine_primary:amine_secondary,L-2-Aminopropanohydroxamic acid (Alaninehydroxamic acid),2:5,amine_primary:amine_secondary,2(amine_primary) > 5(amine_secondary)
C[C@H](N)C(=O)NO,7.26,2:5,amine_primary:amine_secondary,L-2-Aminopropanohydroxamic acid (Alaninehydroxamic acid),2:5,amine_primary:amine_secondary,2(amine_primary) > 5(amine_secondary)
C[C@H](N)C(=O)NO,7.44,2:5,amine_primary:amine_secondary,L-2-Aminopropanohydroxamic acid (Alaninehydroxamic acid),2:5,amine_primary:amine_secondary,2(amine_primary) > 5(amine_secondary)
C[C@H](N)C(=O)NO,7.4,2:5,amine_primary:amine_secondary,L-2-Aminopropanohydroxamic acid (Alaninehydroxamic acid),2:5,amine_primary:amine_secondary,2(amine_primary) > 5(amine_secondary)
CCC[C@H](N)C(=O)NO,9.13,4:7,amine_primary:amine_secondary,DL-2-Aminopentanohydroxamic acid (Norvalinehydroxamic acid),4:7,amine_primary:amine_secondary,4(amine_primary) > 7(amine_secondary)
CCC[C@H](N)C(=O)NO,7.34,4:7,amine_primary:amine_secondary,DL-2-Aminopentanohydroxamic acid (Norvalinehydroxamic acid),4:7,amine_primary:amine_secondary,4(amine_primary) > 7(amine_secondary)
CCCC[C@H](N)C(=O)NO,9.14,5:8,amine_primary:amine_secondary,DL-2-Aminohexanohydroxamic acid (Norleucinehydroxamic acid),5:8,amine_primary:amine_secondary,5(amine_primary) > 8(amine_secondary)
CCCC[C@H](N)C(=O)NO,7.33,5:8,amine_primary:amine_secondary,DL-2-Aminohexanohydroxamic acid (Norleucinehydroxamic acid),5:8,amine_primary:amine_secondary,5(amine_primary) > 8(amine_secondary)
CC(C)C[C@H](N)C(=O)NO,9.1,5:8,amine_primary:amine_secondary,L-2-Amino-4-methylpentanohydroxamic acid (Leucinehydroxamic acid),5:8,amine_primary:amine_secondary,5(amine_primary) > 8(amine_secondary)
CC(C)C[C@H](N)C(=O)NO,9.15,5:8,amine_primary:amine_secondary,L-2-Amino-4-methylpentanohydroxamic acid (Leucinehydroxamic acid),5:8,amine_primary:amine_secondary,5(amine_primary) > 8(amine_secondary)
CC(C)C[C@H](N)C(=O)NO,7.14,5:8,amine_primary:amine_secondary,L-2-Amino-4-methylpentanohydroxamic acid (Leucinehydroxamic acid),5:8,amine_primary:amine_secondary,5(amine_primary) > 8(amine_secondary)
CC(C)C[C@H](N)C(=O)NO,7.26,5:8,amine_primary:amine_secondary,L-2-Amino-4-methylpentanohydroxamic acid (Leucinehydroxamic acid),5:8,amine_primary:amine_secondary,5(amine_primary) > 8(amine_secondary)
CC[C@H](C)[C@H](N)C(=O)NO,9.15,5:8,amine_primary:amine_secondary,L-2-Amino-3-methylpentanohydroxamic acid (Isoleucinehydroxamic acid),5:8,amine_primary:amine_secondary,5(amine_primary) > 8(amine_secondary)
CC[C@H](C)[C@H](N)C(=O)NO,7.25,5:8,amine_primary:amine_secondary,L-2-Amino-3-methylpentanohydroxamic acid (Isoleucinehydroxamic acid),5:8,amine_primary:amine_secondary,5(amine_primary) > 8(amine_secondary)
N[C@@H](Cc1ccccc1)C(=O)NO,9.01,0:11,amine_primary:amine_secondary,DL-2-Amino-3-phenylpropanohydroxamic acid (Phenylalaninehydroxamic acid),0:11,amine_primary:amine_secondary,0(amine_primary) > 11(amine_secondary)
N[C@@H](Cc1ccccc1)C(=O)NO,6.89,0:11,amine_primary:amine_secondary,DL-2-Amino-3-phenylpropanohydroxamic acid (Phenylalaninehydroxamic acid),0:11,amine_primary:amine_secondary,0(amine_primary) > 11(amine_secondary)
NCCC(=O)NO,9.59,0:5,amine_primary:amine_secondary,3-Aminopropanohydroxamic acid (beta-Alaninehydroxamic acid),0:5,amine_primary:amine_secondary,0(amine_primary) > 5(amine_secondary)
NCCC(=O)NO,9.63,0:5,amine_primary:amine_secondary,3-Aminopropanohydroxamic acid (beta-Alaninehydroxamic acid),0:5,amine_primary:amine_secondary,0(amine_primary) > 5(amine_secondary)
NCCC(=O)NO,8.32,0:5,amine_primary:amine_secondary,3-Aminopropanohydroxamic acid (beta-Alaninehydroxamic acid),0:5,amine_primary:amine_secondary,0(amine_primary) > 5(amine_secondary)
NCCC(=O)NO,8.37,0:5,amine_primary:amine_secondary,3-Aminopropanohydroxamic acid (beta-Alaninehydroxamic acid),0:5,amine_primary:amine_secondary,0(amine_primary) > 5(amine_secondary)
N[C@@H](Cc1ccc(O)cc1)C(=O)NO,9.93,0:12:7,amine_primary:amine_secondary:phenol,L-2-Amino-3-(4-hydroxyphenyl)propanohydroxamic acid (Tyrosinehydroxamic acid),7:0:12,phenol:amine_primary:amine_secondary,7(phenol) > 0(amine_primary) > 12(amine_secondary)
N[C@@H](Cc1ccc(O)cc1)C(=O)NO,8.92,0:12:7,amine_primary:amine_secondary:phenol,L-2-Amino-3-(4-hydroxyphenyl)propanohydroxamic acid (Tyrosinehydroxamic acid),7:0:12,phenol:amine_primary:amine_secondary,7(phenol) > 0(amine_primary) > 12(amine_secondary)
N[C@@H](Cc1ccc(O)cc1)C(=O)NO,6.96,0:12:7,amine_primary:amine_secondary:phenol,L-2-Amino-3-(4-hydroxyphenyl)propanohydroxamic acid (Tyrosinehydroxamic acid),7:0:12,phenol:amine_primary:amine_secondary,7(phenol) > 0(amine_primary) > 12(amine_secondary)
N[C@@H](CO)C(=O)NO,9.04,0:6,amine_primary:amine_secondary,DL-2-Amino-3-hydroxypropanohydroxamic acid (Serinehydroxamic acid),0:6,amine_primary:amine_secondary,0(amine_primary) > 6(amine_secondary)
N[C@@H](CO)C(=O)NO,8.9,0:6,amine_primary:amine_secondary,DL-2-Amino-3-hydroxypropanohydroxamic acid (Serinehydroxamic acid),0:6,amine_primary:amine_secondary,0(amine_primary) > 6(amine_secondary)
N[C@@H](CO)C(=O)NO,6.8,0:6,amine_primary:amine_secondary,DL-2-Amino-3-hydroxypropanohydroxamic acid (Serinehydroxamic acid),0:6,amine_primary:amine_secondary,0(amine_primary) > 6(amine_secondary)
N[C@@H](CO)C(=O)NO,6.77,0:6,amine_primary:amine_secondary,DL-2-Amino-3-hydroxypropanohydroxamic acid (Serinehydroxamic acid),0:6,amine_primary:amine_secondary,0(amine_primary) > 6(amine_secondary)
C[C@@H](O)[C@H](N)C(=O)NO,8.89,4:7,amine_primary:amine_secondary,DL-2-Amino-3-hydroxybutanohydroxamic acid (Threoninehydroxamic acid),4:7,amine_primary:amine_secondary,4(amine_primary) > 7(amine_secondary)
C[C@@H](O)[C@H](N)C(=O)NO,8.87,4:7,amine_primary:amine_secondary,DL-2-Amino-3-hydroxybutanohydroxamic acid (Threoninehydroxamic acid),4:7,amine_primary:amine_secondary,4(amine_primary) > 7(amine_secondary)
C[C@@H](O)[C@H](N)C(=O)NO,6.92,4:7,amine_primary:amine_secondary,DL-2-Amino-3-hydroxybutanohydroxamic acid (Threoninehydroxamic acid),4:7,amine_primary:amine_secondary,4(amine_primary) > 7(amine_secondary)
C[C@@H](O)[C@H](N)C(=O)NO,6.77,4:7,amine_primary:amine_secondary,DL-2-Amino-3-hydroxybutanohydroxamic acid (Threoninehydroxamic acid),4:7,amine_primary:amine_secondary,4(amine_primary) > 7(amine_secondary)
N[C@@H](Cc1c[nH]c2ccccc12)C(=O)NO,9.09,0:5,amine_primary:amine_secondary,DL-2-Amino-3-(3-indole)propanohydroxamic acid (Tryptophanhydroxamic acid),0:5,amine_primary:amine_secondary,0(amine_primary) > 5(amine_secondary)
N[C@@H](Cc1c[nH]c2ccccc12)C(=O)NO,7.04,0:5,amine_primary:amine_secondary,DL-2-Amino-3-(3-indole)propanohydroxamic acid (Tryptophanhydroxamic acid),0:5,amine_primary:amine_secondary,0(amine_primary) > 5(amine_secondary)
N[C@@H](CCCNC(N)=N)C(=O)NO,13.23,0:7:5,amine_primary:amine_primary:amine_secondary,L-2-Amino-5-guanidopentanohydroxamic acid (Argininehydroxamic acid),0:7:5,amine_primary:amine_primary:amine_secondary,0(amine_primary) > 7(amine_primary) > 5(amine_secondary)
N[C@@H](CCCNC(N)=N)C(=O)NO,8.84,0:7:5,amine_primary:amine_primary:amine_secondary,L-2-Amino-5-guanidopentanohydroxamic acid (Argininehydroxamic acid),0:7:5,amine_primary:amine_primary:amine_secondary,0(amine_primary) > 7(amine_primary) > 5(amine_secondary)
N[C@@H](CCCNC(N)=N)C(=O)NO,6.88,0:7:5,amine_primary:amine_primary:amine_secondary,L-2-Amino-5-guanidopentanohydroxamic acid (Argininehydroxamic acid),0:7:5,amine_primary:amine_primary:amine_secondary,0(amine_primary) > 7(amine_primary) > 5(amine_secondary)
NCC(=O)NCC(=O)NO,8.4,0:4,amine_primary:amine_secondary,Glycylglycinehydroxamic acid,0:4,amine_primary:amine_secondary,0(amine_primary) > 4(amine_secondary)
NCC(=O)NCC(=O)NO,7.52,0:4,amine_primary:amine_secondary,Glycylglycinehydroxamic acid,0:4,amine_primary:amine_secondary,0(amine_primary) > 4(amine_secondary)
NCC(=O)NCC(=O)NCC(=O)NO,8.4,0:4,amine_primary:amine_secondary,Glycylglycylglycinehydroxamic acid,0:4,amine_primary:amine_secondary,0(amine_primary) > 4(amine_secondary)
NCC(=O)NCC(=O)NCC(=O)NO,7.51,0:4,amine_primary:amine_secondary,Glycylglycylglycinehydroxamic acid,0:4,amine_primary:amine_secondary,0(amine_primary) > 4(amine_secondary)
NCC(N)=NO,7.94,0:3,amine_primary:amine_primary,2-Aminoacetamidoxime,0:3,amine_primary:amine_primary,0(amine_primary) > 3(amine_primary)
NCC(N)=NO,2.47,0:3,amine_primary:amine_primary,2-Aminoacetamidoxime,0:3,amine_primary:amine_primary,0(amine_primary) > 3(amine_primary)
NCCS,10.73,0:3,amine_primary:thiol,2-Aminoethanethiol (2-Mercaptoethylamine),3:0,thiol:amine_primary,3(thiol) > 0(amine_primary)
NCCS,10.81,0:3,amine_primary:thiol,2-Aminoethanethiol (2-Mercaptoethylamine),3:0,thiol:amine_primary,3(thiol) > 0(amine_primary)
NCCS,10.69,0:3,amine_primary:thiol,2-Aminoethanethiol (2-Mercaptoethylamine),3:0,thiol:amine_primary,3(thiol) > 0(amine_primary)
NCCS,8.21,0:3,amine_primary:thiol,2-Aminoethanethiol (2-Mercaptoethylamine),3:0,thiol:amine_primary,3(thiol) > 0(amine_primary)
NCCS,8.39,0:3,amine_primary:thiol,2-Aminoethanethiol (2-Mercaptoethylamine),3:0,thiol:amine_primary,3(thiol) > 0(amine_primary)
NCCS,8.28,0:3,amine_primary:thiol,2-Aminoethanethiol (2-Mercaptoethylamine),3:0,thiol:amine_primary,3(thiol) > 0(amine_primary)
COC(=O)[C@@H](N)CS,8.93,5:7,amine_primary:thiol,L-Cysteine methyl ester,7:5,thiol:amine_primary,7(thiol) > 5(amine_primary)
COC(=O)[C@@H](N)CS,6.53,5:7,amine_primary:thiol,L-Cysteine methyl ester,7:5,thiol:amine_primary,7(thiol) > 5(amine_primary)
CCOC(=O)[C@@H](N)CS,8.96,6:8,amine_primary:thiol,L-Cysteine ethyl ester,8:6,thiol:amine_primary,8(thiol) > 6(amine_primary)
CCOC(=O)[C@@H](N)CS,8.91,6:8,amine_primary:thiol,L-Cysteine ethyl ester,8:6,thiol:amine_primary,8(thiol) > 6(amine_primary)
CCOC(=O)[C@@H](N)CS,6.55,6:8,amine_primary:thiol,L-Cysteine ethyl ester,8:6,thiol:amine_primary,8(thiol) > 6(amine_primary)
CCOC(=O)[C@@H](N)CS,6.39,6:8,amine_primary:thiol,L-Cysteine ethyl ester,8:6,thiol:amine_primary,8(thiol) > 6(amine_primary)
NCCN,9.92,0:3,amine_primary:amine_primary,Ethylenediamine,0:3,amine_primary:amine_primary,0(amine_primary) > 3(amine_primary)
NCCN,9.61,0:3,amine_primary:amine_primary,Ethylenediamine,0:3,amine_primary:amine_primary,0(amine_primary) > 3(amine_primary)
NCCN,10.04,0:3,amine_primary:amine_primary,Ethylenediamine,0:3,amine_primary:amine_primary,0(amine_primary) > 3(amine_primary)
NCCN,10.2,0:3,amine_primary:amine_primary,Ethylenediamine,0:3,amine_primary:amine_primary,0(amine_primary) > 3(amine_primary)
NCCN,10.3,0:3,amine_primary:amine_primary,Ethylenediamine,0:3,amine_primary:amine_primary,0(amine_primary) > 3(amine_primary)
NCCN,10.53,0:3,amine_primary:amine_primary,Ethylenediamine,0:3,amine_primary:amine_primary,0(amine_primary) > 3(amine_primary)
NCCN,10.74,0:3,amine_primary:amine_primary,Ethylenediamine,0:3,amine_primary:amine_primary,0(amine_primary) > 3(amine_primary)
NCCN,10.8,0:3,amine_primary:amine_primary,Ethylenediamine,0:3,amine_primary:amine_primary,0(amine_primary) > 3(amine_primary)
NCCN,10.383,0:3,amine_primary:amine_primary,Ethylenediamine,0:3,amine_primary:amine_primary,0(amine_primary) > 3(amine_primary)
NCCN,9.928,0:3,amine_primary:amine_primary,Ethylenediamine,0:3,amine_primary:amine_primary,0(amine_primary) > 3(amine_primary)
NCCN,9.51,0:3,amine_primary:amine_primary,Ethylenediamine,0:3,amine_primary:amine_primary,0(amine_primary) > 3(amine_primary)
NCCN,7.11,0:3,amine_primary:amine_primary,Ethylenediamine,0:3,amine_primary:amine_primary,0(amine_primary) > 3(amine_primary)