SMILES,pKa,Dissociable_Atoms,Functional_Group,Name
OC(=O)c1cccc(C(O)=O)c1C(O)=O,3.74,0:9:13,carboxylic_acid:carboxylic_acid:carboxylic_acid,"Benzene-1,2,3-tricarboxylic acid (Hemimellitic acid)"
OC(=O)c1cccc(C(O)=O)c1C(O)=O,4.28,0:9:13,carboxylic_acid:carboxylic_acid:carboxylic_acid,"Benzene-1,2,3-tricarboxylic acid (Hemimellitic acid)"
OC(=O)c1cccc(C(O)=O)c1C(O)=O,2.62,0:9:13,carboxylic_acid:carboxylic_acid:carboxylic_acid,"Benzene-1,2,3-tricarboxylic acid (Hemimellitic acid)"
OC(=O)c1cccc(C(O)=O)c1C(O)=O,2.71,0:9:13,carboxylic_acid:carboxylic_acid:carboxylic_acid,"Benzene-1,2,3-tricarboxylic acid (Hemimellitic acid)"
OC(=O)c1cccc(C(O)=O)c1C(O)=O,2.48,0:9:13,carboxylic_acid:carboxylic_acid:carboxylic_acid,"Benzene-1,2,3-tricarboxylic acid (Hemimellitic acid)"
OC(=O)c1cccc(C(O)=O)c1C(O)=O,2.57,0:9:13,carboxylic_acid:carboxylic_acid:carboxylic_acid,"Benzene-1,2,3-tricarboxylic acid (Hemimellitic acid)"
OC(=O)c1cccc(C(O)=O)c1C(O)=O,2.83,0:9:13,carboxylic_acid:carboxylic_acid:carboxylic_acid,"Benzene-1,2,3-tricarboxylic acid (Hemimellitic acid)"
OC(=O)c1ccc(C(O)=O)c(c1)C(O)=O,5.01,0:8:13,carboxylic_acid:carboxylic_acid:carboxylic_acid,"Benzene-1,2,4-tricarboxylic acid (Trimellitic acid)"
OC(=O)c1ccc(C(O)=O)c(c1)C(O)=O,4.57,0:8:13,carboxylic_acid:carboxylic_acid:carboxylic_acid,"Benzene-1,2,4-tricarboxylic acid (Trimellitic acid)"
OC(=O)c1ccc(C(O)=O)c(c1)C(O)=O,5.54,0:8:13,carboxylic_acid:carboxylic_acid:carboxylic_acid,"Benzene-1,2,4-tricarboxylic acid (Trimellitic acid)"
OC(=O)c1ccc(C(O)=O)c(c1)C(O)=O,3.71,0:8:13,carboxylic_acid:carboxylic_acid:carboxylic_acid,"Benzene-1,2,4-tricarboxylic acid (Trimellitic acid)"
OC(=O)c1ccc(C(O)=O)c(c1)C(O)=O,3.55,0:8:13,carboxylic_acid:carboxylic_acid:carboxylic_acid,"Benzene-1,2,4-tricarboxylic acid (Trimellitic acid)"
OC(=O)c1ccc(C(O)=O)c(c1)C(O)=O,4.04,0:8:13,carboxylic_acid:carboxylic_acid:carboxylic_acid,"Benzene-1,2,4-tricarboxylic acid (Trimellitic acid)"
OC(=O)c1ccc(C(O)=O)c(c1)C(O)=O,2.42,0:8:13,carboxylic_acid:carboxylic_acid:carboxylic_acid,"Benzene-1,2,4-tricarboxylic acid (Trimellitic acid)"
OC(=O)c1ccc(C(O)=O)c(c1)C(O)=O,2.32,0:8:13,carboxylic_acid:carboxylic_acid:carboxylic_acid,"Benzene-1,2,4-tricarboxylic acid (Trimellitic acid)"
OC(=O)c1ccc(C(O)=O)c(c1)C(O)=O,2.48,0:8:13,carboxylic_acid:carboxylic_acid:carboxylic_acid,"Benzene-1,2,4-tricarboxylic acid (Trimellitic acid)"
OC(=O)c1cc(cc(c1)C(O)=O)C(O)=O,4.49,0:13:10,carboxylic_acid:carboxylic_acid:carboxylic_acid,"Benzene-1,3,5-tricarboxylic acid (Trimesic acid)"
OC(=O)c1cc(cc(c1)C(O)=O)C(O)=O,4.22,0:13:10,carboxylic_acid:carboxylic_acid:carboxylic_acid,"Benzene-1,3,5-tricarboxylic acid (Trimesic acid)"
OC(=O)c1cc(cc(c1)C(O)=O)C(O)=O,5.18,0:13:10,carboxylic_acid:carboxylic_acid:carboxylic_acid,"Benzene-1,3,5-tricarboxylic acid (Trimesic acid)"
OC(=O)c1cc(cc(c1)C(O)=O)C(O)=O,3.71,0:13:10,carboxylic_acid:carboxylic_acid:carboxylic_acid,"Benzene-1,3,5-tricarboxylic acid (Trimesic acid)"
OC(=O)c1cc(cc(c1)C(O)=O)C(O)=O,3.57,0:13:10,carboxylic_acid:carboxylic_acid:carboxylic_acid,"Benzene-1,3,5-tricarboxylic acid (Trimesic acid)"
OC(=O)c1cc(cc(c1)C(O)=O)C(O)=O,4.1,0:13:10,carboxylic_acid:carboxylic_acid:carboxylic_acid,"Benzene-1,3,5-tricarboxylic acid (Trimesic acid)"
OC(=O)c1cc(cc(c1)C(O)=O)C(O)=O,3.01,0:13:10,carboxylic_acid:carboxylic_acid:carboxylic_acid,"Benzene-1,3,5-tricarboxylic acid (Trimesic acid)"
OC(=O)c1cc(cc(c1)C(O)=O)C(O)=O,3.0,0:13:10,carboxylic_acid:carboxylic_acid:carboxylic_acid,"Benzene-1,3,5-tricarboxylic acid (Trimesic acid)"
OC(=O)c1cc(cc(c1)C(O)=O)C(O)=O,3.12,0:13:10,carboxylic_acid:carboxylic_acid:carboxylic_acid,"Benzene-1,3,5-tricarboxylic acid (Trimesic acid)"
OC(C(CC(O)=O)C(O)=O)C(O)=O,5.73,5:8:11,carboxylic_acid:carboxylic_acid:carboxylic_acid,"DL-1-Hydroxypropane-1,2,3-tricarboxylic acid (Isocitric acid)"
OC(C(CC(O)=O)C(O)=O)C(O)=O,5.75,5:8:11,carboxylic_acid:carboxylic_acid:carboxylic_acid,"DL-1-Hydroxypropane-1,2,3-tricarboxylic acid (Isocitric acid)"
OC(C(CC(O)=O)C(O)=O)C(O)=O,5.06,5:8:11,carboxylic_acid:carboxylic_acid:carboxylic_acid,"DL-1-Hydroxypropane-1,2,3-tricarboxylic acid (Isocitric acid)"
OC(C(CC(O)=O)C(O)=O)C(O)=O,4.3,5:8:11,carboxylic_acid:carboxylic_acid:carboxylic_acid,"DL-1-Hydroxypropane-1,2,3-tricarboxylic acid (Isocitric acid)"
OC(C(CC(O)=O)C(O)=O)C(O)=O,3.73,5:8:11,carboxylic_acid:carboxylic_acid:carboxylic_acid,"DL-1-Hydroxypropane-1,2,3-tricarboxylic acid (Isocitric acid)"
OC(C(CC(O)=O)C(O)=O)C(O)=O,3.05,5:8:11,carboxylic_acid:carboxylic_acid:carboxylic_acid,"DL-1-Hydroxypropane-1,2,3-tricarboxylic acid (Isocitric acid)"
OC(C(CC(O)=O)C(O)=O)C(O)=O,2.29,5:8:11,carboxylic_acid:carboxylic_acid:carboxylic_acid,"DL-1-Hydroxypropane-1,2,3-tricarboxylic acid (Isocitric acid)"
OC(=O)CC(O)(CC(O)=O)C(O)=O,5.65,0:8:11,carboxylic_acid:carboxylic_acid:carboxylic_acid,"2-Hydroxypropane-1,2,3-tricarboxylic acid (Citric acid)"
OC(=O)CC(O)(CC(O)=O)C(O)=O,5.7,0:8:11,carboxylic_acid:carboxylic_acid:carboxylic_acid,"2-Hydroxypropane-1,2,3-tricarboxylic acid (Citric acid)"
OC(=O)CC(O)(CC(O)=O)C(O)=O,5.81,0:8:11,carboxylic_acid:carboxylic_acid:carboxylic_acid,"2-Hydroxypropane-1,2,3-tricarboxylic acid (Citric acid)"
OC(=O)CC(O)(CC(O)=O)C(O)=O,5.55,0:8:11,carboxylic_acid:carboxylic_acid:carboxylic_acid,"2-Hydroxypropane-1,2,3-tricarboxylic acid (Citric acid)"
OC(=O)CC(O)(CC(O)=O)C(O)=O,5.63,0:8:11,carboxylic_acid:carboxylic_acid:carboxylic_acid,"2-Hydroxypropane-1,2,3-tricarboxylic acid (Citric acid)"
OC(=O)CC(O)(CC(O)=O)C(O)=O,5.77,0:8:11,carboxylic_acid:carboxylic_acid:carboxylic_acid,"2-Hydroxypropane-1,2,3-tricarboxylic acid (Citric acid)"
OC(=O)CC(O)(CC(O)=O)C(O)=O,5.27,0:8:11,carboxylic_acid:carboxylic_acid:carboxylic_acid,"2-Hydroxypropane-1,2,3-tricarboxylic acid (Citric acid)"
OC(=O)CC(O)(CC(O)=O)C(O)=O,5.39,0:8:11,carboxylic_acid:carboxylic_acid:carboxylic_acid,"2-Hydroxypropane-1,2,3-tricarboxylic acid (Citric acid)"
OC(=O)CC(O)(CC(O)=O)C(O)=O,5.13,0:8:11,carboxylic_acid:carboxylic_acid:carboxylic_acid,"2-Hydroxypropane-1,2,3-tricarboxylic acid (Citric acid)"
OC(=O)CC(O)(CC(O)=O)C(O)=O,5.33,0:8:11,carboxylic_acid:carboxylic_acid:carboxylic_acid,"2-Hydroxypropane-1,2,3-tricarboxylic acid (Citric acid)"
OC(=O)CC(O)(CC(O)=O)C(O)=O,5.08,0:8:11,carboxylic_acid:carboxylic_acid:carboxylic_acid,"2-Hydroxypropane-1,2,3-tricarboxylic acid (Citric acid)"
OC(=O)CC(O)(CC(O)=O)C(O)=O,5.1,0:8:11,carboxylic_acid:carboxylic_acid:carboxylic_acid,"2-Hydroxypropane-1,2,3-tricarboxylic acid (Citric acid)"
OC(=O)CC(O)(CC(O)=O)C(O)=O,5.12,0:8:11,carboxylic_acid:carboxylic_acid:carboxylic_acid,"2-Hydroxypropane-1,2,3-tricarboxylic acid (Citric acid)"
OC(=O)CC(O)(CC(O)=O)C(O)=O,6.396,0:8:11,carboxylic_acid:carboxylic_acid:carboxylic_acid,"2-Hydroxypropane-1,2,3-tricarboxylic acid (Citric acid)"
OC(=O)CC(O)(CC(O)=O)C(O)=O,4.35,0:8:11,carboxylic_acid:carboxylic_acid:carboxylic_acid,"2-Hydroxypropane-1,2,3-tricarboxylic acid (Citric acid)"
OC(=O)CC(O)(CC(O)=O)C(O)=O,4.28,0:8:11,carboxylic_acid:carboxylic_acid:carboxylic_acid,"2-Hydroxypropane-1,2,3-tricarboxylic acid (Citric acid)"
OC(=O)CC(O)(CC(O)=O)C(O)=O,4.13,0:8:11,carboxylic_acid:carboxylic_acid:carboxylic_acid,"2-Hydroxypropane-1,2,3-tricarboxylic acid (Citric acid)"
OC(=O)CC(O)(CC(O)=O)C(O)=O,4.07,0:8:11,carboxylic_acid:carboxylic_acid:carboxylic_acid,"2-Hydroxypropane-1,2,3-tricarboxylic acid (Citric acid)"
OC(=O)CC(O)(CC(O)=O)C(O)=O,4.09,0:8:11,carboxylic_acid:carboxylic_acid:carboxylic_acid,"2-Hydroxypropane-1,2,3-tricarboxylic acid (Citric acid)"
OC(=O)CC(O)(CC(O)=O)C(O)=O,4.1,0:8:11,carboxylic_acid:carboxylic_acid:carboxylic_acid,"2-Hydroxypropane-1,2,3-tricarboxylic acid (Citric acid)"
OC(=O)CC(O)(CC(O)=O)C(O)=O,4.18,0:8:11,carboxylic_acid:carboxylic_acid:carboxylic_acid,"2-Hydroxypropane-1,2,3-tricarboxylic acid (Citric acid)"
OC(=O)CC(O)(CC(O)=O)C(O)=O,4.761,0:8:11,carboxylic_acid:carboxylic_acid:carboxylic_acid,"2-Hydroxypropane-1,2,3-tricarboxylic acid (Citric acid)"
OC(=O)CC(O)(CC(O)=O)C(O)=O,2.9,0:8:11,carboxylic_acid:carboxylic_acid:carboxylic_acid,"2-Hydroxypropane-1,2,3-tricarboxylic acid (Citric acid)"
OC(=O)CC(O)(CC(O)=O)C(O)=O,2.87,0:8:11,carboxylic_acid:carboxylic_acid:carboxylic_acid,"2-Hydroxypropane-1,2,3-tricarboxylic acid (Citric acid)"
OC(=O)CC(O)(CC(O)=O)C(O)=O,2.78,0:8:11,carboxylic_acid:carboxylic_acid:carboxylic_acid,"2-Hydroxypropane-1,2,3-tricarboxylic acid (Citric acid)"
OC(=O)CC(O)(CC(O)=O)C(O)=O,2.81,0:8:11,carboxylic_acid:carboxylic_acid:carboxylic_acid,"2-Hydroxypropane-1,2,3-tricarboxylic acid (Citric acid)"
OC(=O)CC(O)(CC(O)=O)C(O)=O,2.82,0:8:11,carboxylic_acid:carboxylic_acid:carboxylic_acid,"2-Hydroxypropane-1,2,3-tricarboxylic acid (Citric acid)"
OC(=O)CC(O)(CC(O)=O)C(O)=O,2.91,0:8:11,carboxylic_acid:carboxylic_acid:carboxylic_acid,"2-Hydroxypropane-1,2,3-tricarboxylic acid (Citric acid)"
OC(=O)CC(O)(CC(O)=O)C(O)=O,3.128,0:8:11,carboxylic_acid:carboxylic_acid:carboxylic_acid,"2-Hydroxypropane-1,2,3-tricarboxylic acid (Citric acid)"
OC(=O)c1cc(C(O)=O)c(C(O)=O)c(C(O)=O)c1C(O)=O,5.72,0:7:11:15:19,carboxylic_acid:carboxylic_acid:carboxylic_acid:carboxylic_acid:carboxylic_acid,Benzenepentacarboxylic acid
OC(=O)c1cc(C(O)=O)c(C(O)=O)c(C(O)=O)c1C(O)=O,5.82,0:7:11:15:19,carboxylic_acid:carboxylic_acid:carboxylic_acid:carboxylic_acid:carboxylic_acid,Benzenepentacarboxylic acid
OC(=O)c1cc(C(O)=O)c(C(O)=O)c(C(O)=O)c1C(O)=O,6.56,0:7:11:15:19,carboxylic_acid:carboxylic_acid:carboxylic_acid:carboxylic_acid:carboxylic_acid,Benzenepentacarboxylic acid
OC(=O)c1cc(C(O)=O)c(C(O)=O)c(C(O)=O)c1C(O)=O,5.3,0:7:11:15:19,carboxylic_acid:carboxylic_acid:carboxylic_acid:carboxylic_acid:carboxylic_acid,Benzenepentacarboxylic acid
OC(=O)c1cc(C(O)=O)c(C(O)=O)c(C(O)=O)c1C(O)=O,6.51,0:7:11:15:19,carboxylic_acid:carboxylic_acid:carboxylic_acid:carboxylic_acid:carboxylic_acid,Benzenepentacarboxylic acid
OC(=O)c1cc(C(O)=O)c(C(O)=O)c(C(O)=O)c1C(O)=O,7.43,0:7:11:15:19,carboxylic_acid:carboxylic_acid:carboxylic_acid:carboxylic_acid:carboxylic_acid,Benzenepentacarboxylic acid
OC(=O)c1cc(C(O)=O)c(C(O)=O)c(C(O)=O)c1C(O)=O,4.63,0:7:11:15:19,carboxylic_acid:carboxylic_acid:carboxylic_acid:carboxylic_acid:carboxylic_acid,Benzenepentacarboxylic acid
OC(=O)c1cc(C(O)=O)c(C(O)=O)c(C(O)=O)c1C(O)=O,4.76,0:7:11:15:19,carboxylic_acid:carboxylic_acid:carboxylic_acid:carboxylic_acid:carboxylic_acid,Benzenepentacarboxylic acid
OC(=O)c1cc(C(O)=O)c(C(O)=O)c(C(O)=O)c1C(O)=O,5.17,0:7:11:15:19,carboxylic_acid:carboxylic_acid:carboxylic_acid:carboxylic_acid:carboxylic_acid,Benzenepentacarboxylic acid
OC(=O)c1cc(C(O)=O)c(C(O)=O)c(C(O)=O)c1C(O)=O,4.23,0:7:11:15:19,carboxylic_acid:carboxylic_acid:carboxylic_acid:carboxylic_acid:carboxylic_acid,Benzenepentacarboxylic acid
OC(=O)c1cc(C(O)=O)c(C(O)=O)c(C(O)=O)c1C(O)=O,5.14,0:7:11:15:19,carboxylic_acid:carboxylic_acid:carboxylic_acid:carboxylic_acid:carboxylic_acid,Benzenepentacarboxylic acid
OC(=O)c1cc(C(O)=O)c(C(O)=O)c(C(O)=O)c1C(O)=O,5.87,0:7:11:15:19,carboxylic_acid:carboxylic_acid:carboxylic_acid:carboxylic_acid:carboxylic_acid,Benzenepentacarboxylic acid
OC(=O)c1cc(C(O)=O)c(C(O)=O)c(C(O)=O)c1C(O)=O,3.37,0:7:11:15:19,carboxylic_acid:carboxylic_acid:carboxylic_acid:carboxylic_acid:carboxylic_acid,Benzenepentacarboxylic acid
OC(=O)c1cc(C(O)=O)c(C(O)=O)c(C(O)=O)c1C(O)=O,3.72,0:7:11:15:19,carboxylic_acid:carboxylic_acid:carboxylic_acid:carboxylic_acid:carboxylic_acid,Benzenepentacarboxylic acid
OC(=O)c1cc(C(O)=O)c(C(O)=O)c(C(O)=O)c1C(O)=O,3.87,0:7:11:15:19,carboxylic_acid:carboxylic_acid:carboxylic_acid:carboxylic_acid:carboxylic_acid,Benzenepentacarboxylic acid
OC(=O)c1cc(C(O)=O)c(C(O)=O)c(C(O)=O)c1C(O)=O,3.25,0:7:11:15:19,carboxylic_acid:carboxylic_acid:carboxylic_acid:carboxylic_acid:carboxylic_acid,Benzenepentacarboxylic acid
OC(=O)c1cc(C(O)=O)c(C(O)=O)c(C(O)=O)c1C(O)=O,3.86,0:7:11:15:19,carboxylic_acid:carboxylic_acid:carboxylic_acid:carboxylic_acid:carboxylic_acid,Benzenepentacarboxylic acid
OC(=O)c1cc(C(O)=O)c(C(O)=O)c(C(O)=O)c1C(O)=O,4.39,0:7:11:15:19,carboxylic_acid:carboxylic_acid:carboxylic_acid:carboxylic_acid:carboxylic_acid,Benzenepentacarboxylic acid
OC(=O)c1cc(C(O)=O)c(C(O)=O)c(C(O)=O)c1C(O)=O,2.39,0:7:11:15:19,carboxylic_acid:carboxylic_acid:carboxylic_acid:carboxylic_acid:carboxylic_acid,Benzenepentacarboxylic acid
OC(=O)c1cc(C(O)=O)c(C(O)=O)c(C(O)=O)c1C(O)=O,2.64,0:7:11:15:19,carboxylic_acid:carboxylic_acid:carboxylic_acid:carboxylic_acid:carboxylic_acid,Benzenepentacarboxylic acid
OC(=O)c1cc(C(O)=O)c(C(O)=O)c(C(O)=O)c1C(O)=O,2.2,0:7:11:15:19,carboxylic_acid:carboxylic_acid:carboxylic_acid:carboxylic_acid:carboxylic_acid,Benzenepentacarboxylic acid
OC(=O)c1cc(C(O)=O)c(C(O)=O)c(C(O)=O)c1C(O)=O,2.66,0:7:11:15:19,carboxylic_acid:carboxylic_acid:carboxylic_acid:carboxylic_acid:carboxylic_acid,Benzenepentacarboxylic acid
OC(=O)c1cc(C(O)=O)c(C(O)=O)c(C(O)=O)c1C(O)=O,2.99,0:7:11:15:19,carboxylic_acid:carboxylic_acid:carboxylic_acid:carboxylic_acid:carboxylic_acid,Benzenepentacarboxylic acid
OC(=O)c1cc(C(O)=O)c(C(O)=O)c(C(O)=O)c1C(O)=O,1.64,0:7:11:15:19,carboxylic_acid:carboxylic_acid:carboxylic_acid:carboxylic_acid:carboxylic_acid,Benzenepentacarboxylic acid
OC(=O)c1cc(C(O)=O)c(C(O)=O)c(C(O)=O)c1C(O)=O,1.26,0:7:11:15:19,carboxylic_acid:carboxylic_acid:carboxylic_acid:carboxylic_acid:carboxylic_acid,Benzenepentacarboxylic acid
OC(=O)c1cc(C(O)=O)c(C(O)=O)c(C(O)=O)c1C(O)=O,1.75,0:7:11:15:19,carboxylic_acid:carboxylic_acid:carboxylic_acid:carboxylic_acid:carboxylic_acid,Benzenepentacarboxylic acid
OC(=O)c1cc(C(O)=O)c(C(O)=O)c(C(O)=O)c1C(O)=O,1.88,0:7:11:15:19,carboxylic_acid:carboxylic_acid:carboxylic_acid:carboxylic_acid:carboxylic_acid,Benzenepentacarboxylic acid
OC(=O)c1c(C(O)=O)c(C(O)=O)c(C(O)=O)c(C(O)=O)c1C(O)=O,6.46,0:6:10:14:18:22,carboxylic_acid:carboxylic_acid:carboxylic_acid:carboxylic_acid:carboxylic_acid:carboxylic_acid,Benzenehexacarboxylic acid (Mellitic acid)
OC(=O)c1c(C(O)=O)c(C(O)=O)c(C(O)=O)c(C(O)=O)c1C(O)=O,5.38,0:6:10:14:18:22,carboxylic_acid:carboxylic_acid:carboxylic_acid:carboxylic_acid:carboxylic_acid:carboxylic_acid,Benzenehexacarboxylic acid (Mellitic acid)
OC(=O)c1c(C(O)=O)c(C(O)=O)c(C(O)=O)c(C(O)=O)c1C(O)=O,7.7,0:6:10:14:18:22,carboxylic_acid:carboxylic_acid:carboxylic_acid:carboxylic_acid:carboxylic_acid:carboxylic_acid,Benzenehexacarboxylic acid (Mellitic acid)
OC(=O)c1c(C(O)=O)c(C(O)=O)c(C(O)=O)c(C(O)=O)c1C(O)=O,5.37,0:6:10:14:18:22,carboxylic_acid:carboxylic_acid:carboxylic_acid:carboxylic_acid:carboxylic_acid:carboxylic_acid,Benzenehexacarboxylic acid (Mellitic acid)
OC(=O)c1c(C(O)=O)c(C(O)=O)c(C(O)=O)c(C(O)=O)c1C(O)=O,4.43,0:6:10:14:18:22,carboxylic_acid:carboxylic_acid:carboxylic_acid:carboxylic_acid:carboxylic_acid:carboxylic_acid,Benzenehexacarboxylic acid (Mellitic acid)
OC(=O)c1c(C(O)=O)c(C(O)=O)c(C(O)=O)c(C(O)=O)c1C(O)=O,6.38,0:6:10:14:18:22,carboxylic_acid:carboxylic_acid:carboxylic_acid:carboxylic_acid:carboxylic_acid:carboxylic_acid,Benzenehexacarboxylic acid (Mellitic acid)
OC(=O)c1c(C(O)=O)c(C(O)=O)c(C(O)=O)c(C(O)=O)c1C(O)=O,4.31,0:6:10:14:18:22,carboxylic_acid:carboxylic_acid:carboxylic_acid:carboxylic_acid:carboxylic_acid:carboxylic_acid,Benzenehexacarboxylic acid (Mellitic acid)
OC(=O)c1c(C(O)=O)c(C(O)=O)c(C(O)=O)c(C(O)=O)c1C(O)=O,4.23,0:6:10:14:18:22,carboxylic_acid:carboxylic_acid:carboxylic_acid:carboxylic_acid:carboxylic_acid:carboxylic_acid,Benzenehexacarboxylic acid (Mellitic acid)
OC(=O)c1c(C(O)=O)c(C(O)=O)c(C(O)=O)c(C(O)=O)c1C(O)=O,5.09,0:6:10:14:18:22,carboxylic_acid:carboxylic_acid:carboxylic_acid:carboxylic_acid:carboxylic_acid:carboxylic_acid,Benzenehexacarboxylic acid (Mellitic acid)
OC(=O)c1c(C(O)=O)c(C(O)=O)c(C(O)=O)c(C(O)=O)c1C(O)=O,2.93,0:6:10:14:18:22,carboxylic_acid:carboxylic_acid:carboxylic_acid:carboxylic_acid:carboxylic_acid:carboxylic_acid,Benzenehexacarboxylic acid (Mellitic acid)
OC(=O)c1c(C(O)=O)c(C(O)=O)c(C(O)=O)c(C(O)=O)c1C(O)=O,2.43,0:6:10:14:18:22,carboxylic_acid:carboxylic_acid:carboxylic_acid:carboxylic_acid:carboxylic_acid:carboxylic_acid,Benzenehexacarboxylic acid (Mellitic acid)
OC(=O)c1c(C(O)=O)c(C(O)=O)c(C(O)=O)c(C(O)=O)c1C(O)=O,3.5,0:6:10:14:18:22,carboxylic_acid:carboxylic_acid:carboxylic_acid:carboxylic_acid:carboxylic_acid:carboxylic_acid,Benzenehexacarboxylic acid (Mellitic acid)
OC(=O)c1c(C(O)=O)c(C(O)=O)c(C(O)=O)c(C(O)=O)c1C(O)=O,1.7,0:6:10:14:18:22,carboxylic_acid:carboxylic_acid:carboxylic_acid:carboxylic_acid:carboxylic_acid:carboxylic_acid,Benzenehexacarboxylic acid (Mellitic acid)
OC(=O)c1c(C(O)=O)c(C(O)=O)c(C(O)=O)c(C(O)=O)c1C(O)=O,2.08,0:6:10:14:18:22,carboxylic_acid:carboxylic_acid:carboxylic_acid:carboxylic_acid:carboxylic_acid:carboxylic_acid,Benzenehexacarboxylic acid (Mellitic acid)
OC(=O)c1c(C(O)=O)c(C(O)=O)c(C(O)=O)c(C(O)=O)c1C(O)=O,2.18,0:6:10:14:18:22,carboxylic_acid:carboxylic_acid:carboxylic_acid:carboxylic_acid:carboxylic_acid:carboxylic_acid,Benzenehexacarboxylic acid (Mellitic acid)
OC(=O)c1c(C(O)=O)c(C(O)=O)c(C(O)=O)c(C(O)=O)c1C(O)=O,0.5,0:6:10:14:18:22,carboxylic_acid:carboxylic_acid:carboxylic_acid:carboxylic_acid:carboxylic_acid:carboxylic_acid,Benzenehexacarboxylic acid (Mellitic acid)
OC(=O)c1c(C(O)=O)c(C(O)=O)c(C(O)=O)c(C(O)=O)c1C(O)=O,1.1,0:6:10:14:18:22,carboxylic_acid:carboxylic_acid:carboxylic_acid:carboxylic_acid:carboxylic_acid:carboxylic_acid,Benzenehexacarboxylic acid (Mellitic acid)
OC(=O)c1c(C(O)=O)c(C(O)=O)c(C(O)=O)c(C(O)=O)c1C(O)=O,1.0,0:6:10:14:18:22,carboxylic_acid:carboxylic_acid:carboxylic_acid:carboxylic_acid:carboxylic_acid:carboxylic_acid,Benzenehexacarboxylic acid (Mellitic acid)
OB(O)c1ccccc1,8.67,0,alcohol,Phenylboronic acid
OB(O)c1ccccc1,8.84,0,alcohol,Phenylboronic acid
OB(O)c1cccc(c1)[N+]([O-])=O,6.96,15,n_oxide,3-Nitrophenylboronic acid
C[P](O)(O)=O,7.49,1:2,phosphate:phosphate,Methylphosphonic acid
C[P](O)(O)=O,8.0,1:2,phosphate:phosphate,Methylphosphonic acid
C[P](O)(O)=O,2.16,1:2,phosphate:phosphate,Methylphosphonic acid
CC[P](O)(O)=O,7.72,2:3,phosphate:phosphate,Ethylphosphonic acid
CC[P](O)(O)=O,2.26,2:3,phosphate:phosphate,Ethylphosphonic acid
CC(C)(C)[P](O)(O)=O,8.44,4:5,phosphate:phosphate,2-Methyl-2-propylphosphonic acid
CC(C)(C)[P](O)(O)=O,8.71,4:5,phosphate:phosphate,2-Methyl-2-propylphosphonic acid
CC(C)(C)[P](O)(O)=O,2.63,4:5,phosphate:phosphate,2-Methyl-2-propylphosphonic acid
O[P](O)(=O)C1CCCCC1,8.17,0:1,phosphate:phosphate,Cyclohexylphosphonic acid
O[P](O)(=O)C1CCCCC1,2.49,0:1,phosphate:phosphate,Cyclohexylphosphonic acid
O[P](O)(=O)c1ccccc1,7.0,0:1,phosphate:phosphate,Phenylphosphonic acid
O[P](O)(=O)c1ccccc1,6.71,0:1,phosphate:phosphate,Phenylphosphonic acid
O[P](O)(=O)c1ccccc1,6.85,0:1,phosphate:phosphate,Phenylphosphonic acid
O[P](O)(=O)c1ccccc1,6.72,0:1,phosphate:phosphate,Phenylphosphonic acid
O[P](O)(=O)c1ccccc1,6.75,0:1,phosphate:phosphate,Phenylphosphonic acid
O[P](O)(=O)c1ccccc1,7.47,0:1,phosphate:phosphate,Phenylphosphonic acid
O[P](O)(=O)c1ccccc1,1.7,0:1,phosphate:phosphate,Phenylphosphonic acid
O[P](O)(=O)c1ccccc1,1.6,0:1,phosphate:phosphate,Phenylphosphonic acid
O[P](O)(=O)c1ccccc1,1.9,0:1,phosphate:phosphate,Phenylphosphonic acid
Cc1ccccc1[P](O)(O)=O,7.92,7:8,phosphate:phosphate,2-Methylphenylphosphonic acid
Cc1ccccc1[P](O)(O)=O,2.08,7:8,phosphate:phosphate,2-Methylphenylphosphonic acid
Cc1cccc(c1)[P](O)(O)=O,7.64,7:8,phosphate:phosphate,3-Methylphenylphosphonic acid
Cc1cccc(c1)[P](O)(O)=O,2.0,7:8,phosphate:phosphate,3-Methylphenylphosphonic acid
Cc1ccc(cc1)[P](O)(O)=O,7.66,7:8,phosphate:phosphate,4-Methylphenylphosphonic acid
Cc1ccc(cc1)[P](O)(O)=O,2.0,7:8,phosphate:phosphate,4-Methylphenylphosphonic acid
Cc1ccc(cc1C)[P](O)(O)=O,7.72,8:9,phosphate:phosphate,"3,4-Dimethylphenylphosphonic acid"
Cc1ccc(cc1C)[P](O)(O)=O,2.04,8:9,phosphate:phosphate,"3,4-Dimethylphenylphosphonic acid"
O[P](O)(=O)c1cccc(c1)[N+]([O-])=O,6.61,0:1,phosphate:phosphate,3-Nitrophenylphosphonic acid
O[P](O)(=O)c1cccc(c1)[N+]([O-])=O,1.2,0:1,phosphate:phosphate,3-Nitrophenylphosphonic acid
O[P](O)(=O)c1ccc(cc1)[N+]([O-])=O,6.58,0:1,phosphate:phosphate,4-Nitrophenylphosphonic acid
O[P](O)(=O)c1ccc(cc1)[N+]([O-])=O,1.2,0:1,phosphate:phosphate,4-Nitrophenylphosphonic acid
O[P](O)(=O)CBr,6.24,0:1,phosphate:phosphate,Bromomethylphosphonic acid