SMILES,pKa,Dissociable_Atoms,Functional_Group,Name
Nc1ncnc2n(cnc12)C3OC(CO[P](O)(=O)O[P](O)(=O)O[P](O)(O)=O)C(O)C3O,5.96,0:28:30,amine_primary:alcohol:alcohol,Adenosine-5'-(tetrahydrogentriphosphate) (ATP)
Nc1ncnc2n(cnc12)C3OC(CO[P](O)(=O)O[P](O)(=O)O[P](O)(O)=O)C(O)C3O,6.07,0:28:30,amine_primary:alcohol:alcohol,Adenosine-5'-(tetrahydrogentriphosphate) (ATP)
Nc1ncnc2n(cnc12)C3OC(CO[P](O)(=O)O[P](O)(=O)O[P](O)(O)=O)C(O)C3O,6.71,0:28:30,amine_primary:alcohol:alcohol,Adenosine-5'-(tetrahydrogentriphosphate) (ATP)
Nc1ncnc2n(cnc12)C3OC(CO[P](O)(=O)O[P](O)(=O)O[P](O)(O)=O)C(O)C3O,5.82,0:28:30,amine_primary:alcohol:alcohol,Adenosine-5'-(tetrahydrogentriphosphate) (ATP)
Nc1ncnc2n(cnc12)C3OC(CO[P](O)(=O)O[P](O)(=O)O[P](O)(O)=O)C(O)C3O,5.94,0:28:30,amine_primary:alcohol:alcohol,Adenosine-5'-(tetrahydrogentriphosphate) (ATP)
Nc1ncnc2n(cnc12)C3OC(CO[P](O)(=O)O[P](O)(=O)O[P](O)(O)=O)C(O)C3O,6.74,0:28:30,amine_primary:alcohol:alcohol,Adenosine-5'-(tetrahydrogentriphosphate) (ATP)
Nc1ncnc2n(cnc12)C3OC(CO[P](O)(=O)O[P](O)(=O)O[P](O)(O)=O)C(O)C3O,7.68,0:28:30,amine_primary:alcohol:alcohol,Adenosine-5'-(tetrahydrogentriphosphate) (ATP)
Nc1ncnc2n(cnc12)C3OC(CO[P](O)(=O)O[P](O)(=O)O[P](O)(O)=O)C(O)C3O,7.81,0:28:30,amine_primary:alcohol:alcohol,Adenosine-5'-(tetrahydrogentriphosphate) (ATP)
Nc1ncnc2n(cnc12)C3OC(CO[P](O)(=O)O[P](O)(=O)O[P](O)(O)=O)C(O)C3O,3.99,0:28:30,amine_primary:alcohol:alcohol,Adenosine-5'-(tetrahydrogentriphosphate) (ATP)
Nc1ncnc2n(cnc12)C3OC(CO[P](O)(=O)O[P](O)(=O)O[P](O)(O)=O)C(O)C3O,3.88,0:28:30,amine_primary:alcohol:alcohol,Adenosine-5'-(tetrahydrogentriphosphate) (ATP)
Nc1ncnc2n(cnc12)C3OC(CO[P](O)(=O)O[P](O)(=O)O[P](O)(O)=O)C(O)C3O,3.92,0:28:30,amine_primary:alcohol:alcohol,Adenosine-5'-(tetrahydrogentriphosphate) (ATP)
Nc1ncnc2n(cnc12)C3OC(CO[P](O)(=O)O[P](O)(=O)O[P](O)(O)=O)C(O)C3O,3.91,0:28:30,amine_primary:alcohol:alcohol,Adenosine-5'-(tetrahydrogentriphosphate) (ATP)
Nc1ncnc2n(cnc12)C3OC(CO[P](O)(=O)O[P](O)(=O)O[P](O)(O)=O)C(O)C3O,3.87,0:28:30,amine_primary:alcohol:alcohol,Adenosine-5'-(tetrahydrogentriphosphate) (ATP)
Nc1ncnc2n(cnc12)C3OC(CO[P](O)(=O)O[P](O)(=O)O[P](O)(O)=O)C(O)C3O,4.55,0:28:30,amine_primary:alcohol:alcohol,Adenosine-5'-(tetrahydrogentriphosphate) (ATP)
Nc1ncnc2n(cnc12)C3OC(CO[P](O)(=O)O[P](O)(=O)O[P](O)(O)=O)C(O)C3O,4.34,0:28:30,amine_primary:alcohol:alcohol,Adenosine-5'-(tetrahydrogentriphosphate) (ATP)
Nc1ncnc2n(cnc12)C3OC(CO[P](O)(=O)O[P](O)(=O)O[P](O)(O)=O)C(O)C3O,1.9,0:28:30,amine_primary:alcohol:alcohol,Adenosine-5'-(tetrahydrogentriphosphate) (ATP)
Nc1ncnc2n(cnc12)C3OC(CO[P](O)(=O)O[P](O)(=O)O[P](O)(O)=O)C(O)C3O,1.91,0:28:30,amine_primary:alcohol:alcohol,Adenosine-5'-(tetrahydrogentriphosphate) (ATP)
Nc1ncnc2n(cnc12)C3OC(CO[P](O)(=O)O[P](O)(=O)O[P](O)(O)=O)C(O)C3O,2.04,0:28:30,amine_primary:alcohol:alcohol,Adenosine-5'-(tetrahydrogentriphosphate) (ATP)
NC1=NC(=O)c2ncn(C3OC(CO[P](O)(=O)O[P](O)(=O)O[P](O)(O)=O)C(O)C3O)c2N1,6.41,2:31,pyridine_nitrogen:pyridine_nitrogen,Guanosine-5'-(tetrahydrogentriphosphate) (GTP)
NC1=NC(=O)c2ncn(C3OC(CO[P](O)(=O)O[P](O)(=O)O[P](O)(O)=O)C(O)C3O)c2N1,6.53,2:31,pyridine_nitrogen:pyridine_nitrogen,Guanosine-5'-(tetrahydrogentriphosphate) (GTP)
NC1=NC(=O)c2ncn(C3OC(CO[P](O)(=O)O[P](O)(=O)O[P](O)(O)=O)C(O)C3O)c2N1,6.95,2:31,pyridine_nitrogen:pyridine_nitrogen,Guanosine-5'-(tetrahydrogentriphosphate) (GTP)
NC1=NC(=O)c2ncn(C3OC(CO[P](O)(=O)O[P](O)(=O)O[P](O)(O)=O)C(O)C3O)c2N1,6.43,2:31,pyridine_nitrogen:pyridine_nitrogen,Guanosine-5'-(tetrahydrogentriphosphate) (GTP)
NC1=NC(=O)c2ncn(C3OC(CO[P](O)(=O)O[P](O)(=O)O[P](O)(O)=O)C(O)C3O)c2N1,7.65,2:31,pyridine_nitrogen:pyridine_nitrogen,Guanosine-5'-(tetrahydrogentriphosphate) (GTP)
NC1=NC(=O)c2ncn(C3OC(CO[P](O)(=O)O[P](O)(=O)O[P](O)(O)=O)C(O)C3O)c2N1,2.93,2:31,pyridine_nitrogen:pyridine_nitrogen,Guanosine-5'-(tetrahydrogentriphosphate) (GTP)
NC1=NC(=O)c2ncn(C3OC(CO[P](O)(=O)O[P](O)(=O)O[P](O)(O)=O)C(O)C3O)c2N1,2.88,2:31,pyridine_nitrogen:pyridine_nitrogen,Guanosine-5'-(tetrahydrogentriphosphate) (GTP)
Nc1ncnc2n(cnc12)[C@@H]3O[C@H](CO[P](O)(=O)O[P](O)(=O)O[P](O)(=O)O[P](O)(O)=O)[C@@H](O)[C@H]3O,6.65,2:4,pyridine_nitrogen:pyridine_nitrogen,Adenosine-5'-(pentahydrogentetraphosphate) (AQP)
Nc1ncnc2n(cnc12)[C@@H]3O[C@H](CO[P](O)(=O)O[P](O)(=O)O[P](O)(=O)O[P](O)(O)=O)[C@@H](O)[C@H]3O,6.77,2:4,pyridine_nitrogen:pyridine_nitrogen,Adenosine-5'-(pentahydrogentetraphosphate) (AQP)
Nc1ncnc2n(cnc12)[C@@H]3O[C@H](CO[P](O)(=O)O[P](O)(=O)O[P](O)(=O)O[P](O)(O)=O)[C@@H](O)[C@H]3O,6.79,2:4,pyridine_nitrogen:pyridine_nitrogen,Adenosine-5'-(pentahydrogentetraphosphate) (AQP)
Nc1ncnc2n(cnc12)[C@@H]3O[C@H](CO[P](O)(=O)O[P](O)(=O)O[P](O)(=O)O[P](O)(O)=O)[C@@H](O)[C@H]3O,7.25,2:4,pyridine_nitrogen:pyridine_nitrogen,Adenosine-5'-(pentahydrogentetraphosphate) (AQP)
Nc1ncnc2n(cnc12)[C@@H]3O[C@H](CO[P](O)(=O)O[P](O)(=O)O[P](O)(=O)O[P](O)(O)=O)[C@@H](O)[C@H]3O,7.44,2:4,pyridine_nitrogen:pyridine_nitrogen,Adenosine-5'-(pentahydrogentetraphosphate) (AQP)
Nc1ncnc2n(cnc12)[C@@H]3O[C@H](CO[P](O)(=O)O[P](O)(=O)O[P](O)(=O)O[P](O)(O)=O)[C@@H](O)[C@H]3O,7.46,2:4,pyridine_nitrogen:pyridine_nitrogen,Adenosine-5'-(pentahydrogentetraphosphate) (AQP)
Nc1ncnc2n(cnc12)[C@@H]3O[C@H](CO[P](O)(=O)O[P](O)(=O)O[P](O)(=O)O[P](O)(O)=O)[C@@H](O)[C@H]3O,4.05,2:4,pyridine_nitrogen:pyridine_nitrogen,Adenosine-5'-(pentahydrogentetraphosphate) (AQP)
Nc1ncnc2n(cnc12)[C@@H]3O[C@H](CO[P](O)(=O)O[P](O)(=O)O[P](O)(=O)O[P](O)(O)=O)[C@@H](O)[C@H]3O,4.09,2:4,pyridine_nitrogen:pyridine_nitrogen,Adenosine-5'-(pentahydrogentetraphosphate) (AQP)
NC1(CCCC1)[P](O)(O)=O,10.17,0:6:7,amine_primary:phosphate:phosphate,1-Aminocyclopentylphosphonic acid
NC1(CCCC1)[P](O)(O)=O,5.83,0:6:7,amine_primary:phosphate:phosphate,1-Aminocyclopentylphosphonic acid
NC1(CCCC1)[P](O)(O)=O,1.0,0:6:7,amine_primary:phosphate:phosphate,1-Aminocyclopentylphosphonic acid
CC(C)(N)[P](O)(O)=O,10.3,3:4:5,amine_primary:phosphate:phosphate,2-Amino-2-propylphosphonic acid
CC(C)(N)[P](O)(O)=O,5.82,3:4:5,amine_primary:phosphate:phosphate,2-Amino-2-propylphosphonic acid
CC(C)(N)[P](O)(O)=O,0.6,3:4:5,amine_primary:phosphate:phosphate,2-Amino-2-propylphosphonic acid
NCCC[P](O)(O)=O,11.04,0:4:5,amine_primary:phosphate:phosphate,3-Aminopropylphosphonic acid
NCCC[P](O)(O)=O,6.88,0:4:5,amine_primary:phosphate:phosphate,3-Aminopropylphosphonic acid
NCCC[P](O)(O)=O,1.6,0:4:5,amine_primary:phosphate:phosphate,3-Aminopropylphosphonic acid
O[P](O)(=O)C1CCCCN1,11.31,9:0:1,amine_secondary:phosphate:phosphate,Piperidine-2-phosphonic acid
O[P](O)(=O)C1CCCCN1,5.74,9:0:1,amine_secondary:phosphate:phosphate,Piperidine-2-phosphonic acid
O[P](O)(=O)C1CCCCN1,2.0,9:0:1,amine_secondary:phosphate:phosphate,Piperidine-2-phosphonic acid
Nc1cccc(c1)[P](O)(O)=O,7.53,0:7,amine_primary:phosphate,3-Aminobenzenephosphonic acid
Nc1cccc(c1)[P](O)(O)=O,4.5,0:7,amine_primary:phosphate,3-Aminobenzenephosphonic acid
Nc1ccc(cc1)[P](O)(O)=O,7.84,0:7,amine_primary:phosphate,4-Aminobenzenephosphonic acid
Nc1ccc(cc1)[P](O)(O)=O,3.99,0:7,amine_primary:phosphate,4-Aminobenzenephosphonic acid
NC([P](O)(O)=O)[P](O)(O)=O,11.7,0:2:3:4,amine_primary:phosphate:phosphate:phosphate,Aminomethylenediphosphonic acid
NC([P](O)(O)=O)[P](O)(O)=O,8.42,0:2:3:4,amine_primary:phosphate:phosphate:phosphate,Aminomethylenediphosphonic acid
NC([P](O)(O)=O)[P](O)(O)=O,5.42,0:2:3:4,amine_primary:phosphate:phosphate:phosphate,Aminomethylenediphosphonic acid
NC([P](O)(O)=O)[P](O)(O)=O,1.4,0:2:3:4,amine_primary:phosphate:phosphate:phosphate,Aminomethylenediphosphonic acid
CC(N)([P](O)(O)=O)[P](O)(O)=O,11.5,2:3:4:5,amine_primary:phosphate:phosphate:phosphate,"1-Aminoethane-1,1-diphosphonic acid"
CC(N)([P](O)(O)=O)[P](O)(O)=O,8.58,2:3:4:5,amine_primary:phosphate:phosphate:phosphate,"1-Aminoethane-1,1-diphosphonic acid"
CC(N)([P](O)(O)=O)[P](O)(O)=O,5.37,2:3:4:5,amine_primary:phosphate:phosphate:phosphate,"1-Aminoethane-1,1-diphosphonic acid"
CC(N)([P](O)(O)=O)[P](O)(O)=O,1.5,2:3:4:5,amine_primary:phosphate:phosphate:phosphate,"1-Aminoethane-1,1-diphosphonic acid"
NO[P](O)(=O)C(c1ccccc1)[P](O)(O)=O,10.29,0:2:3:12,amine_primary:phosphate:phosphate:phosphate,Amino(phenyl)methylenediphosphonic acid
NO[P](O)(=O)C(c1ccccc1)[P](O)(O)=O,8.17,0:2:3:12,amine_primary:phosphate:phosphate:phosphate,Amino(phenyl)methylenediphosphonic acid
NO[P](O)(=O)C(c1ccccc1)[P](O)(O)=O,5.29,0:2:3:12,amine_primary:phosphate:phosphate:phosphate,Amino(phenyl)methylenediphosphonic acid
NO[P](O)(=O)C(c1ccccc1)[P](O)(O)=O,1.6,0:2:3:12,amine_primary:phosphate:phosphate:phosphate,Amino(phenyl)methylenediphosphonic acid
NCCCC(O)([P](O)(O)=O)[P](O)(O)=O,11.6,0:5:6:7,amine_primary:alcohol:phosphate:phosphate,"4-Amino-1-hydroxybutane-1,1-diphosphonic acid"
NCCCC(O)([P](O)(O)=O)[P](O)(O)=O,10.5,0:5:6:7,amine_primary:alcohol:phosphate:phosphate,"4-Amino-1-hydroxybutane-1,1-diphosphonic acid"
NCCCC(O)([P](O)(O)=O)[P](O)(O)=O,8.73,0:5:6:7,amine_primary:alcohol:phosphate:phosphate,"4-Amino-1-hydroxybutane-1,1-diphosphonic acid"
NCCCC(O)([P](O)(O)=O)[P](O)(O)=O,2.72,0:5:6:7,amine_primary:alcohol:phosphate:phosphate,"4-Amino-1-hydroxybutane-1,1-diphosphonic acid"
OC(=O)CBr,2.71,0,carboxylic_acid,Bromoacetic acid
OC(=O)CBr,2.65,0,carboxylic_acid,Bromoacetic acid
OC(=O)CBr,2.68,0,carboxylic_acid,Bromoacetic acid
OC(=O)CBr,2.8,0,carboxylic_acid,Bromoacetic acid
OC(=O)CBr,2.85,0,carboxylic_acid,Bromoacetic acid
OC(=O)CBr,2.95,0,carboxylic_acid,Bromoacetic acid
OC(=O)CBr,2.887,0,carboxylic_acid,Bromoacetic acid
OC(=O)CBr,2.902,0,carboxylic_acid,Bromoacetic acid
OC(=O)CBr,2.918,0,carboxylic_acid,Bromoacetic acid
OC(=O)CCBr,3.79,0,carboxylic_acid,3-Bromopropanoic acid
OC(=O)CCBr,3.75,0,carboxylic_acid,3-Bromopropanoic acid
OC(=O)CCBr,3.78,0,carboxylic_acid,3-Bromopropanoic acid
OC(=O)CCBr,3.92,0,carboxylic_acid,3-Bromopropanoic acid
OC(=O)CCBr,4.09,0,carboxylic_acid,3-Bromopropanoic acid
OC(=O)CCBr,3.99,0,carboxylic_acid,3-Bromopropanoic acid
OC(=O)CI,2.98,0,carboxylic_acid,Iodoacetic acid
OC(=O)CI,2.92,0,carboxylic_acid,Iodoacetic acid
OC(=O)CI,2.94,0,carboxylic_acid,Iodoacetic acid
OC(=O)CI,3.07,0,carboxylic_acid,Iodoacetic acid
OC(=O)CI,3.11,0,carboxylic_acid,Iodoacetic acid
OC(=O)CI,3.24,0,carboxylic_acid,Iodoacetic acid
OC(=O)CI,3.143,0,carboxylic_acid,Iodoacetic acid
OC(=O)CI,3.175,0,carboxylic_acid,Iodoacetic acid
OC(=O)CI,3.213,0,carboxylic_acid,Iodoacetic acid
OC(=O)CCI,3.9,0,carboxylic_acid,3-Iodopropanoic acid
OC(=O)CCI,3.83,0,carboxylic_acid,3-Iodopropanoic acid
OC(=O)CCI,3.87,0,carboxylic_acid,3-Iodopropanoic acid
OC(=O)CCI,4.0,0,carboxylic_acid,3-Iodopropanoic acid
OC(=O)CCI,4.17,0,carboxylic_acid,3-Iodopropanoic acid
OC(=O)CCI,4.1,0,carboxylic_acid,3-Iodopropanoic acid
OC(=O)C#CBr,1.86,0,carboxylic_acid,Bromopropynoic acid
OC(=O)c1ccccc1F,3.469,0,carboxylic_acid,2-Fluorobenzoic acid
OC(=O)c1cccc(F)c1,3.68,0,carboxylic_acid,3-Fluorobenzoic acid
OC(=O)c1cccc(F)c1,3.863,0,carboxylic_acid,3-Fluorobenzoic acid
OC(=O)c1ccc(F)cc1,3.95,0,carboxylic_acid,4-Fluorobenzoic acid
OC(=O)c1ccc(F)cc1,4.131,0,carboxylic_acid,4-Fluorobenzoic acid
OC(=O)c1cccc(F)c1F,3.101,0,carboxylic_acid,"2,3-Difluorobenzoic acid"
OC(=O)c1ccc(F)cc1F,3.438,0,carboxylic_acid,"2,4-Difluorobenzoic acid"
OC(=O)c1cc(F)ccc1F,3.108,0,carboxylic_acid,"2,5-Difluorobenzoic acid"
OC(=O)c1c(F)cccc1F,2.236,0,carboxylic_acid,"2,6-Difluorobenzoic acid"
OC(=O)c1ccc(F)c(F)c1,3.792,0,carboxylic_acid,"3,4-Difluorobenzoic acid"
OC(=O)c1cc(F)cc(F)c1,3.524,0,carboxylic_acid,"3,5-Difluorobenzoic acid"
OC(=O)c1c(F)c(F)c(F)c(F)c1F,1.5,0,carboxylic_acid,Pentafluorobenzoic acid
OC(=O)c1ccccc1Br,2.85,0,carboxylic_acid,2-Bromobenzoic acid
OC(=O)c1cccc(Br)c1,3.811,0,carboxylic_acid,3-Bromobenzoic acid
OC(=O)c1ccc(Br)cc1,4.002,0,carboxylic_acid,4-Bromobenzoic acid
OC(=O)c1ccccc1I,2.862,0,carboxylic_acid,2-Iodobenzoic acid
OC(=O)c1cccc(I)c1,3.854,0,carboxylic_acid,3-Iodobenzoic acid
OC(=O)c1ccc(I)cc1,3.996,0,carboxylic_acid,4-Iodobenzoic acid
OC(=O)Cc1ccccc1Br,4.054,0,carboxylic_acid,(2-Bromophenyl)acetic acid
OC(=O)Cc1ccc(Br)cc1,4.188,0,carboxylic_acid,(4-Bromophenyl)acetic acid
OC(=O)Cc1ccccc1I,4.038,0,carboxylic_acid,(2-Iodophenyl)acetic acid
OC(=O)Cc1cccc(I)c1,4.159,0,carboxylic_acid,(3-Iodophenyl)acetic acid
OC(=O)Cc1ccc(I)cc1,4.178,0,carboxylic_acid,(4-Iodophenyl)acetic acid
OC(=O)C[N+]([O-])=O,1.46,7,n_oxide,Nitroacetic acid
OC(=O)C[N+]([O-])=O,1.34,7,n_oxide,Nitroacetic acid
OC(=O)C[N+]([O-])=O,1.68,7,n_oxide,Nitroacetic acid
CC(C)(C(O)=O)[N+]([O-])=O,1.7,13,n_oxide,2-Methyl-2-nitropropanoic acid
CC(C)(C(O)=O)[N+]([O-])=O,1.93,13,n_oxide,2-Methyl-2-nitropropanoic acid
OC(=O)c1ccccc1[N+]([O-])=O,2.185,14,n_oxide,2-Nitrobenzoic acid
OC(=O)c1cccc(c1)[N+]([O-])=O,3.28,16,n_oxide,3-Nitrobenzoic acid
OC(=O)c1cccc(c1)[N+]([O-])=O,3.449,16,n_oxide,3-Nitrobenzoic acid
OC(=O)c1ccc(cc1)[N+]([O-])=O,3.28,16,n_oxide,4-Nitrobenzoic acid
OC(=O)c1ccc(cc1)[N+]([O-])=O,3.442,16,n_oxide,4-Nitrobenzoic acid
OC(=O)c1cc(cc(c1)[N+]([O-])=O)[N+]([O-])=O,2.68,17,n_oxide,"3,5-Dinitrobenzoic acid"
OC(=O)Cc1ccccc1[N+]([O-])=O,4.004,15,n_oxide,(2-Nitrophenyl)acetic acid
OC(=O)Cc1cccc(c1)[N+]([O-])=O,3.967,17,n_oxide,(3-Nitrophenyl)acetic acid
OC(=O)Cc1ccc(cc1)[N+]([O-])=O,3.851,17,n_oxide,(4-Nitrophenyl)acetic acid
OC(=O)Cc1ccc(cc1[N+]([O-])=O)[N+]([O-])=O,3.502,16,n_oxide,"(2,4-Dinitrophenyl)acetic acid"
OC(=O)CC#N,2.48,9,nitrile,Cyanoacetic acid
OC(=O)CC#N,2.63,9,nitrile,Cyanoacetic acid
OC(=O)CC#N,2.472,9,nitrile,Cyanoacetic acid
OC(=O)c1cccc(c1)C#N,3.596,18,nitrile,3-Cyanobenzoic acid
OC(=O)c1ccc(cc1)C#N,3.55,18,nitrile,4-Cyanobenzoic acid
CC(C)(C#N)C(O)=O,2.422,8,nitrile,2-Cyano-2-methylpropanoic acid
CC(C)C(C#N)C(O)=O,2.401,9,nitrile,2-Cyano-3-methylbutanoic acid
CC(C)C(C#N)(C(C)C)C(O)=O,2.556,9,nitrile,2-Cyano-3-methyl-2-(2-propyl)butanoic acid
OC(=O)[P](O)(O)=O,7.57,0:3:4,carboxylic_acid:phosphate:phosphate,Phosphonoformic acid
OC(=O)[P](O)(O)=O,3.6,0:3:4,carboxylic_acid:phosphate:phosphate,Phosphonoformic acid
OC(=O)[P](O)(O)=O,1.7,0:3:4,carboxylic_acid:phosphate:phosphate,Phosphonoformic acid
OC(=O)C[P](O)(O)=O,7.84,0:4:5,carboxylic_acid:phosphate:phosphate,Phosphonoacetic acid
OC(=O)C[P](O)(O)=O,7.81,0:4:5,carboxylic_acid:phosphate:phosphate,Phosphonoacetic acid
OC(=O)C[P](O)(O)=O,7.23,0:4:5,carboxylic_acid:phosphate:phosphate,Phosphonoacetic acid
OC(=O)C[P](O)(O)=O,8.69,0:4:5,carboxylic_acid:phosphate:phosphate,Phosphonoacetic acid
OC(=O)C[P](O)(O)=O,4.78,0:4:5,carboxylic_acid:phosphate:phosphate,Phosphonoacetic acid
OC(=O)C[P](O)(O)=O,4.68,0:4:5,carboxylic_acid:phosphate:phosphate,Phosphonoacetic acid
OC(=O)C[P](O)(O)=O,4.57,0:4:5,carboxylic_acid:phosphate:phosphate,Phosphonoacetic acid
OC(=O)C[P](O)(O)=O,5.11,0:4:5,carboxylic_acid:phosphate:phosphate,Phosphonoacetic acid
OC(=O)C[P](O)(O)=O,2.0,0:4:5,carboxylic_acid:phosphate:phosphate,Phosphonoacetic acid
OC(=O)C[P](O)(O)=O,1.1,0:4:5,carboxylic_acid:phosphate:phosphate,Phosphonoacetic acid
OC(=O)C[P](O)(O)=O,0.9,0:4:5,carboxylic_acid:phosphate:phosphate,Phosphonoacetic acid
CC(C(O)=O)[P](O)(O)=O,8.54,3:5:6,carboxylic_acid:phosphate:phosphate,2-Phosphonopropanoic acid
CC(C(O)=O)[P](O)(O)=O,5.15,3:5:6,carboxylic_acid:phosphate:phosphate,2-Phosphonopropanoic acid
CC(C(O)=O)[P](O)(O)=O,1.8,3:5:6,carboxylic_acid:phosphate:phosphate,2-Phosphonopropanoic acid
OC(=O)CC[P](O)(O)=O,7.71,0:5:6,carboxylic_acid:phosphate:phosphate,3-Phosphonopropanoic acid
OC(=O)CC[P](O)(O)=O,7.75,0:5:6,carboxylic_acid:phosphate:phosphate,3-Phosphonopropanoic acid
OC(=O)CC[P](O)(O)=O,7.83,0:5:6,carboxylic_acid:phosphate:phosphate,3-Phosphonopropanoic acid
OC(=O)CC[P](O)(O)=O,4.52,0:5:6,carboxylic_acid:phosphate:phosphate,3-Phosphonopropanoic acid
OC(=O)CC[P](O)(O)=O,4.63,0:5:6,carboxylic_acid:phosphate:phosphate,3-Phosphonopropanoic acid
OC(=O)CC[P](O)(O)=O,4.6,0:5:6,carboxylic_acid:phosphate:phosphate,3-Phosphonopropanoic acid
OC(=O)CC[P](O)(O)=O,2.26,0:5:6,carboxylic_acid:phosphate:phosphate,3-Phosphonopropanoic acid
OC(=O)CC[P](O)(O)=O,2.0,0:5:6,carboxylic_acid:phosphate:phosphate,3-Phosphonopropanoic acid
OC(=O)C(=C)O[P](O)(O)=O,6.14,0:6,carboxylic_acid:phosphate,2-Hydroxypropenoic acid 2-(dihydrogenphosphate) (Phosphoenolpyruvic acid)
OC(=O)C(=C)O[P](O)(O)=O,6.35,0:6,carboxylic_acid:phosphate,2-Hydroxypropenoic acid 2-(dihydrogenphosphate) (Phosphoenolpyruvic acid)
OC(=O)C(=C)O[P](O)(O)=O,3.45,0:6,carboxylic_acid:phosphate,2-Hydroxypropenoic acid 2-(dihydrogenphosphate) (Phosphoenolpyruvic acid)
OCC(O[P](O)(=O)O[P](O)(O)=O)C(O)=O,7.2,13:0:4,carboxylic_acid:alcohol:phosphate,"DL-2,3-Dihydroxypropanoic acid 2,3-bis(dihydrogenphosphate) (Diphosphoglyceric acid)"
OCC(O[P](O)(=O)O[P](O)(O)=O)C(O)=O,7.86,13:0:4,carboxylic_acid:alcohol:phosphate,"DL-2,3-Dihydroxypropanoic acid 2,3-bis(dihydrogenphosphate) (Diphosphoglyceric acid)"
OCC(O[P](O)(=O)O[P](O)(O)=O)C(O)=O,6.02,13:0:4,carboxylic_acid:alcohol:phosphate,"DL-2,3-Dihydroxypropanoic acid 2,3-bis(dihydrogenphosphate) (Diphosphoglyceric acid)"
OCC(O[P](O)(=O)O[P](O)(O)=O)C(O)=O,6.37,13:0:4,carboxylic_acid:alcohol:phosphate,"DL-2,3-Dihydroxypropanoic acid 2,3-bis(dihydrogenphosphate) (Diphosphoglyceric acid)"
OCC(O[P](O)(=O)O[P](O)(O)=O)C(O)=O,3.19,13:0:4,carboxylic_acid:alcohol:phosphate,"DL-2,3-Dihydroxypropanoic acid 2,3-bis(dihydrogenphosphate) (Diphosphoglyceric acid)"
ONC(=O)CCCC(O)=O,9.39,8:1,carboxylic_acid:amine_secondary,3-Carboxypropanohydroxamic acid (N-Hydroxyglutaramic acid)
ONC(=O)CCCC(O)=O,4.37,8:1,carboxylic_acid:amine_secondary,3-Carboxypropanohydroxamic acid (N-Hydroxyglutaramic acid)
C[C@H](N[S](=O)(=O)c1ccc(C)cc1)C(O)=O,12.05,2:14,amine_secondary:carboxylic_acid,L-2-(4-Methylphenylsulfonylamino)propanoic acid (N-Tosylalanine)
C[C@H](N[S](=O)(=O)c1ccc(C)cc1)C(O)=O,3.39,2:14,amine_secondary:carboxylic_acid,L-2-(4-Methylphenylsulfonylamino)propanoic acid (N-Tosylalanine)
NC1=C(NC(=O)NC1=O)C(O)=O,8.72,10:3,carboxylic_acid:amine_secondary,"5-Amino-1,3-dihydro-1,3-diazine-2,4-dione-6-carboxylic acid (5-Aminoorotic acid)"
NC1=C(NC(=O)NC1=O)C(O)=O,2.63,10:3,carboxylic_acid:amine_secondary,"5-Amino-1,3-dihydro-1,3-diazine-2,4-dione-6-carboxylic acid (5-Aminoorotic acid)"
CN(CC(O)=O)C(N)=N,2.631,1,tertiary_amine,N-Amidino-N-methylaminoacetic acid (Creatine)
C[Si](C)(C)c1cccc(c1)C(O)=O,4.089,11,carboxylic_acid,3-(Trimethylsilyl)benzoic acid
C[Si](C)(C)c1ccc(cc1)C(O)=O,4.198,11,carboxylic_acid,4-(Trimethylsilyl)benzoic acid
OCC(O)=O,3.62,3,carboxylic_acid,Hydroxyacetic acid (Glycolic acid)
OCC(O)=O,3.56,3,carboxylic_acid,Hydroxyacetic acid (Glycolic acid)
OCC(O)=O,3.57,3,carboxylic_acid,Hydroxyacetic acid (Glycolic acid)
OCC(O)=O,3.6,3,carboxylic_acid,Hydroxyacetic acid (Glycolic acid)
OCC(O)=O,3.61,3,carboxylic_acid,Hydroxyacetic acid (Glycolic acid)
OCC(O)=O,3.64,3,carboxylic_acid,Hydroxyacetic acid (Glycolic acid)
OCC(O)=O,3.72,3,carboxylic_acid,Hydroxyacetic acid (Glycolic acid)
OCC(O)=O,3.75,3,carboxylic_acid,Hydroxyacetic acid (Glycolic acid)
OCC(O)=O,3.78,3,carboxylic_acid,Hydroxyacetic acid (Glycolic acid)
OCC(O)=O,3.89,3,carboxylic_acid,Hydroxyacetic acid (Glycolic acid)
OCC(O)=O,3.92,3,carboxylic_acid,Hydroxyacetic acid (Glycolic acid)
OCC(O)=O,3.848,3,carboxylic_acid,Hydroxyacetic acid (Glycolic acid)
OCC(O)=O,3.832,3,carboxylic_acid,Hydroxyacetic acid (Glycolic acid)
OCC(O)=O,3.835,3,carboxylic_acid,Hydroxyacetic acid (Glycolic acid)
CC(O)C(O)=O,3.67,4,carboxylic_acid,D-2-Hydroxypropanoic acid (Lactic acid)
CC(O)C(O)=O,3.55,4,carboxylic_acid,D-2-Hydroxypropanoic acid (Lactic acid)
CC(O)C(O)=O,3.59,4,carboxylic_acid,D-2-Hydroxypropanoic acid (Lactic acid)
CC(O)C(O)=O,3.62,4,carboxylic_acid,D-2-Hydroxypropanoic acid (Lactic acid)
CC(O)C(O)=O,3.64,4,carboxylic_acid,D-2-Hydroxypropanoic acid (Lactic acid)
CC(O)C(O)=O,3.65,4,carboxylic_acid,D-2-Hydroxypropanoic acid (Lactic acid)
CC(O)C(O)=O,3.73,4,carboxylic_acid,D-2-Hydroxypropanoic acid (Lactic acid)
CC(O)C(O)=O,3.8,4,carboxylic_acid,D-2-Hydroxypropanoic acid (Lactic acid)
CC(O)C(O)=O,3.82,4,carboxylic_acid,D-2-Hydroxypropanoic acid (Lactic acid)
CC(O)C(O)=O,3.93,4,carboxylic_acid,D-2-Hydroxypropanoic acid (Lactic acid)
CC(O)C(O)=O,3.868,4,carboxylic_acid,D-2-Hydroxypropanoic acid (Lactic acid)