SMILES,pKa,Dissociable_Atoms,Functional_Group,Name
OC(=O)CSCc1ccccc1,3.6,0,carboxylic_acid,(Benzylthio)acetic acid
OC(=O)CSCc1ccccc1,3.73,0,carboxylic_acid,(Benzylthio)acetic acid
OC(=O)CSc1ccccc1,3.33,0,carboxylic_acid,(Phenylthio)acetic acid
OC(=O)CSc1ccccc1,3.29,0,carboxylic_acid,(Phenylthio)acetic acid
Cc1ccccc1SCC(O)=O,3.27,10,carboxylic_acid,(2-Methylphenylthio)acetic acid
Cc1cccc(SCC(O)=O)c1,3.28,9,carboxylic_acid,(3-Methylphenylthio)acetic acid
Cc1ccc(SCC(O)=O)cc1,3.34,8,carboxylic_acid,(4-Methylphenylthio)acetic acid
OC(=O)CSc1ccc(Br)cc1,3.22,0,carboxylic_acid,(4-Bromophenylthio)acetic acid
OC(=O)CSc1cccc(c1)C(F)(F)F,3.19,0,carboxylic_acid,(3-Trifluoromethylphenylthio)acetic acid
OC(=O)CSc1ccc(cc1)C#N,3.01,20,nitrile,(4-Cyanophenylthio)acetic acid
OC(=O)CSc1ccccc1[N+]([O-])=O,2.99,16,n_oxide,(2-Nitrophenylthio)acetic acid
OC(=O)CSc1ccc(cc1)[N+]([O-])=O,2.98,18,n_oxide,(4-Nitrophenylthio)acetic acid
COc1ccccc1SCC(O)=O,3.48,11,carboxylic_acid,(2-Methoxyphenylthio)acetic acid
COc1cccc(SCC(O)=O)c1,3.28,10,carboxylic_acid,(3-Methoxyphenylthio)acetic acid
COc1ccc(SCC(O)=O)cc1,3.43,9,carboxylic_acid,(4-Methoxyphenylthio)acetic acid
Nc1ccc(SCC(O)=O)cc1,4.48,0:8,amine_primary:carboxylic_acid,(4-Aminophenylthio)acetic acid
Nc1ccc(SCC(O)=O)cc1,2.99,0:8,amine_primary:carboxylic_acid,(4-Aminophenylthio)acetic acid
OC(=O)CSCCc1ccccc1,3.8,0,carboxylic_acid,(2-Phenylethylthio)acetic acid
CSc1ccc(cc1)C(O)=O,3.9,9,carboxylic_acid,4-(Methylthio)benzoic acid
OC(=O)c1sccc1,3.33,0,carboxylic_acid,Thiole-2-carboxylic acid (2-Thenoic acid)
OC(=O)c1sccc1,3.38,0,carboxylic_acid,Thiole-2-carboxylic acid (2-Thenoic acid)
OC(=O)c1sccc1,3.51,0,carboxylic_acid,Thiole-2-carboxylic acid (2-Thenoic acid)
CCSCCSCC(O)=O,3.61,8,carboxylic_acid,"3,6-Dithiaoctanoic acid"
CCOC(=O)CSCC(O)=O,3.66,9,carboxylic_acid,Thiodiacetic acid monoethyl ester
OC(=O)CNC(S)=S,6.67,0:4,carboxylic_acid:amine_secondary,N-(Dithiocarboxy)aminoacetic acid
OC(=O)CNC(S)=S,3.75,0:4,carboxylic_acid:amine_secondary,N-(Dithiocarboxy)aminoacetic acid
OC(=O)C(O)=O,3.8,0:4,carboxylic_acid:carboxylic_acid,Ethanedioic acid (Oxalic acid)
OC(=O)C(O)=O,3.82,0:4,carboxylic_acid:carboxylic_acid,Ethanedioic acid (Oxalic acid)
OC(=O)C(O)=O,3.93,0:4,carboxylic_acid:carboxylic_acid,Ethanedioic acid (Oxalic acid)
OC(=O)C(O)=O,3.86,0:4,carboxylic_acid:carboxylic_acid,Ethanedioic acid (Oxalic acid)
OC(=O)C(O)=O,3.89,0:4,carboxylic_acid:carboxylic_acid,Ethanedioic acid (Oxalic acid)
OC(=O)C(O)=O,3.99,0:4,carboxylic_acid:carboxylic_acid,Ethanedioic acid (Oxalic acid)
OC(=O)C(O)=O,3.62,0:4,carboxylic_acid:carboxylic_acid,Ethanedioic acid (Oxalic acid)
OC(=O)C(O)=O,3.69,0:4,carboxylic_acid:carboxylic_acid,Ethanedioic acid (Oxalic acid)
OC(=O)C(O)=O,3.95,0:4,carboxylic_acid:carboxylic_acid,Ethanedioic acid (Oxalic acid)
OC(=O)C(O)=O,3.53,0:4,carboxylic_acid:carboxylic_acid,Ethanedioic acid (Oxalic acid)
OC(=O)C(O)=O,3.57,0:4,carboxylic_acid:carboxylic_acid,Ethanedioic acid (Oxalic acid)
OC(=O)C(O)=O,3.63,0:4,carboxylic_acid:carboxylic_acid,Ethanedioic acid (Oxalic acid)
OC(=O)C(O)=O,4.07,0:4,carboxylic_acid:carboxylic_acid,Ethanedioic acid (Oxalic acid)
OC(=O)C(O)=O,3.51,0:4,carboxylic_acid:carboxylic_acid,Ethanedioic acid (Oxalic acid)
OC(=O)C(O)=O,3.6,0:4,carboxylic_acid:carboxylic_acid,Ethanedioic acid (Oxalic acid)
OC(=O)C(O)=O,3.83,0:4,carboxylic_acid:carboxylic_acid,Ethanedioic acid (Oxalic acid)
OC(=O)C(O)=O,3.76,0:4,carboxylic_acid:carboxylic_acid,Ethanedioic acid (Oxalic acid)
OC(=O)C(O)=O,4.01,0:4,carboxylic_acid:carboxylic_acid,Ethanedioic acid (Oxalic acid)
OC(=O)C(O)=O,4.23,0:4,carboxylic_acid:carboxylic_acid,Ethanedioic acid (Oxalic acid)
OC(=O)C(O)=O,4.71,0:4,carboxylic_acid:carboxylic_acid,Ethanedioic acid (Oxalic acid)
OC(=O)C(O)=O,5.11,0:4,carboxylic_acid:carboxylic_acid,Ethanedioic acid (Oxalic acid)
OC(=O)C(O)=O,4.218,0:4,carboxylic_acid:carboxylic_acid,Ethanedioic acid (Oxalic acid)
OC(=O)C(O)=O,4.266,0:4,carboxylic_acid:carboxylic_acid,Ethanedioic acid (Oxalic acid)
OC(=O)C(O)=O,4.338,0:4,carboxylic_acid:carboxylic_acid,Ethanedioic acid (Oxalic acid)
OC(=O)C(O)=O,1.2,0:4,carboxylic_acid:carboxylic_acid,Ethanedioic acid (Oxalic acid)
OC(=O)C(O)=O,1.1,0:4,carboxylic_acid:carboxylic_acid,Ethanedioic acid (Oxalic acid)
OC(=O)C(O)=O,1.07,0:4,carboxylic_acid:carboxylic_acid,Ethanedioic acid (Oxalic acid)
OC(=O)C(O)=O,1.27,0:4,carboxylic_acid:carboxylic_acid,Ethanedioic acid (Oxalic acid)
OC(=O)C(O)=O,1.43,0:4,carboxylic_acid:carboxylic_acid,Ethanedioic acid (Oxalic acid)
OC(=O)C(O)=O,1.75,0:4,carboxylic_acid:carboxylic_acid,Ethanedioic acid (Oxalic acid)
OC(=O)C(O)=O,2.13,0:4,carboxylic_acid:carboxylic_acid,Ethanedioic acid (Oxalic acid)
OC(=O)C(O)=O,1.25,0:4,carboxylic_acid:carboxylic_acid,Ethanedioic acid (Oxalic acid)
OC(=O)CC(O)=O,5.27,0:5,carboxylic_acid:carboxylic_acid,Propanedioic acid (Malonic acid)
OC(=O)CC(O)=O,5.39,0:5,carboxylic_acid:carboxylic_acid,Propanedioic acid (Malonic acid)
OC(=O)CC(O)=O,5.24,0:5,carboxylic_acid:carboxylic_acid,Propanedioic acid (Malonic acid)
OC(=O)CC(O)=O,5.06,0:5,carboxylic_acid:carboxylic_acid,Propanedioic acid (Malonic acid)
OC(=O)CC(O)=O,5.08,0:5,carboxylic_acid:carboxylic_acid,Propanedioic acid (Malonic acid)
OC(=O)CC(O)=O,5.45,0:5,carboxylic_acid:carboxylic_acid,Propanedioic acid (Malonic acid)
OC(=O)CC(O)=O,4.98,0:5,carboxylic_acid:carboxylic_acid,Propanedioic acid (Malonic acid)
OC(=O)CC(O)=O,5.03,0:5,carboxylic_acid:carboxylic_acid,Propanedioic acid (Malonic acid)
OC(=O)CC(O)=O,5.05,0:5,carboxylic_acid:carboxylic_acid,Propanedioic acid (Malonic acid)
OC(=O)CC(O)=O,5.62,0:5,carboxylic_acid:carboxylic_acid,Propanedioic acid (Malonic acid)
OC(=O)CC(O)=O,5.0,0:5,carboxylic_acid:carboxylic_acid,Propanedioic acid (Malonic acid)
OC(=O)CC(O)=O,5.09,0:5,carboxylic_acid:carboxylic_acid,Propanedioic acid (Malonic acid)
OC(=O)CC(O)=O,5.16,0:5,carboxylic_acid:carboxylic_acid,Propanedioic acid (Malonic acid)
OC(=O)CC(O)=O,5.2,0:5,carboxylic_acid:carboxylic_acid,Propanedioic acid (Malonic acid)
OC(=O)CC(O)=O,5.35,0:5,carboxylic_acid:carboxylic_acid,Propanedioic acid (Malonic acid)
OC(=O)CC(O)=O,5.667,0:5,carboxylic_acid:carboxylic_acid,Propanedioic acid (Malonic acid)
OC(=O)CC(O)=O,5.696,0:5,carboxylic_acid:carboxylic_acid,Propanedioic acid (Malonic acid)
OC(=O)CC(O)=O,5.752,0:5,carboxylic_acid:carboxylic_acid,Propanedioic acid (Malonic acid)
OC(=O)CC(O)=O,2.65,0:5,carboxylic_acid:carboxylic_acid,Propanedioic acid (Malonic acid)
OC(=O)CC(O)=O,2.68,0:5,carboxylic_acid:carboxylic_acid,Propanedioic acid (Malonic acid)
OC(=O)CC(O)=O,2.61,0:5,carboxylic_acid:carboxylic_acid,Propanedioic acid (Malonic acid)
OC(=O)CC(O)=O,2.69,0:5,carboxylic_acid:carboxylic_acid,Propanedioic acid (Malonic acid)
OC(=O)CC(O)=O,2.54,0:5,carboxylic_acid:carboxylic_acid,Propanedioic acid (Malonic acid)
OC(=O)CC(O)=O,2.73,0:5,carboxylic_acid:carboxylic_acid,Propanedioic acid (Malonic acid)
OC(=O)CC(O)=O,2.56,0:5,carboxylic_acid:carboxylic_acid,Propanedioic acid (Malonic acid)
OC(=O)CC(O)=O,2.58,0:5,carboxylic_acid:carboxylic_acid,Propanedioic acid (Malonic acid)
OC(=O)CC(O)=O,2.84,0:5,carboxylic_acid:carboxylic_acid,Propanedioic acid (Malonic acid)
OC(=O)CC(O)=O,2.62,0:5,carboxylic_acid:carboxylic_acid,Propanedioic acid (Malonic acid)
OC(=O)CC(O)=O,2.64,0:5,carboxylic_acid:carboxylic_acid,Propanedioic acid (Malonic acid)
OC(=O)CC(O)=O,2.72,0:5,carboxylic_acid:carboxylic_acid,Propanedioic acid (Malonic acid)
OC(=O)CC(O)=O,2.76,0:5,carboxylic_acid:carboxylic_acid,Propanedioic acid (Malonic acid)
OC(=O)CC(O)=O,2.82,0:5,carboxylic_acid:carboxylic_acid,Propanedioic acid (Malonic acid)
OC(=O)CC(O)=O,2.868,0:5,carboxylic_acid:carboxylic_acid,Propanedioic acid (Malonic acid)
OC(=O)CC(O)=O,2.847,0:5,carboxylic_acid:carboxylic_acid,Propanedioic acid (Malonic acid)
OC(=O)CC(O)=O,2.863,0:5,carboxylic_acid:carboxylic_acid,Propanedioic acid (Malonic acid)
CC(C(O)=O)C(O)=O,5.38,3:6,carboxylic_acid:carboxylic_acid,"Ethane-1,1-dicarboxylic acid (Methylmalonic acid)"
CC(C(O)=O)C(O)=O,5.12,3:6,carboxylic_acid:carboxylic_acid,"Ethane-1,1-dicarboxylic acid (Methylmalonic acid)"
CC(C(O)=O)C(O)=O,5.18,3:6,carboxylic_acid:carboxylic_acid,"Ethane-1,1-dicarboxylic acid (Methylmalonic acid)"
CC(C(O)=O)C(O)=O,5.76,3:6,carboxylic_acid:carboxylic_acid,"Ethane-1,1-dicarboxylic acid (Methylmalonic acid)"
CC(C(O)=O)C(O)=O,2.87,3:6,carboxylic_acid:carboxylic_acid,"Ethane-1,1-dicarboxylic acid (Methylmalonic acid)"
CC(C(O)=O)C(O)=O,2.8,3:6,carboxylic_acid:carboxylic_acid,"Ethane-1,1-dicarboxylic acid (Methylmalonic acid)"
CC(C(O)=O)C(O)=O,3.01,3:6,carboxylic_acid:carboxylic_acid,"Ethane-1,1-dicarboxylic acid (Methylmalonic acid)"
CCC(C(O)=O)C(O)=O,5.46,4:7,carboxylic_acid:carboxylic_acid,"Propane-1,1-dicarboxylic acid (Ethylmalonic acid)"
CCC(C(O)=O)C(O)=O,5.85,4:7,carboxylic_acid:carboxylic_acid,"Propane-1,1-dicarboxylic acid (Ethylmalonic acid)"
CCC(C(O)=O)C(O)=O,2.77,4:7,carboxylic_acid:carboxylic_acid,"Propane-1,1-dicarboxylic acid (Ethylmalonic acid)"
CCC(C(O)=O)C(O)=O,2.99,4:7,carboxylic_acid:carboxylic_acid,"Propane-1,1-dicarboxylic acid (Ethylmalonic acid)"
CCCC(C(O)=O)C(O)=O,5.45,5:8,carboxylic_acid:carboxylic_acid,"Butane-1,1-dicarboxylic acid (Propylmalonic acid)"
CCCC(C(O)=O)C(O)=O,5.85,5:8,carboxylic_acid:carboxylic_acid,"Butane-1,1-dicarboxylic acid (Propylmalonic acid)"
CCCC(C(O)=O)C(O)=O,2.84,5:8,carboxylic_acid:carboxylic_acid,"Butane-1,1-dicarboxylic acid (Propylmalonic acid)"
CCCC(C(O)=O)C(O)=O,3.0,5:8,carboxylic_acid:carboxylic_acid,"Butane-1,1-dicarboxylic acid (Propylmalonic acid)"
CCCCC(C(O)=O)C(O)=O,5.49,6:9,carboxylic_acid:carboxylic_acid,"Pentane-1,1-dicarboxylic acid (Butylmalonic acid)"
CCCCC(C(O)=O)C(O)=O,5.2,6:9,carboxylic_acid:carboxylic_acid,"Pentane-1,1-dicarboxylic acid (Butylmalonic acid)"
CCCCC(C(O)=O)C(O)=O,5.95,6:9,carboxylic_acid:carboxylic_acid,"Pentane-1,1-dicarboxylic acid (Butylmalonic acid)"
CCCCC(C(O)=O)C(O)=O,2.81,6:9,carboxylic_acid:carboxylic_acid,"Pentane-1,1-dicarboxylic acid (Butylmalonic acid)"
CCCCC(C(O)=O)C(O)=O,2.77,6:9,carboxylic_acid:carboxylic_acid,"Pentane-1,1-dicarboxylic acid (Butylmalonic acid)"
CCCCC(C(O)=O)C(O)=O,3.02,6:9,carboxylic_acid:carboxylic_acid,"Pentane-1,1-dicarboxylic acid (Butylmalonic acid)"
CCCCCC(C(O)=O)C(O)=O,5.54,7:10,carboxylic_acid:carboxylic_acid,"Hexane-1,1-dicarboxylic acid (Pentylmalonic acid)"
CCCCCC(C(O)=O)C(O)=O,2.8,7:10,carboxylic_acid:carboxylic_acid,"Hexane-1,1-dicarboxylic acid (Pentylmalonic acid)"
CC(C)C(C(O)=O)C(O)=O,5.5,5:8,carboxylic_acid:carboxylic_acid,"2-Methylpropane-1,1-dicarboxylic acid (Isopropylmalonic acid)"
CC(C)C(C(O)=O)C(O)=O,5.88,5:8,carboxylic_acid:carboxylic_acid,"2-Methylpropane-1,1-dicarboxylic acid (Isopropylmalonic acid)"
CC(C)C(C(O)=O)C(O)=O,2.78,5:8,carboxylic_acid:carboxylic_acid,"2-Methylpropane-1,1-dicarboxylic acid (Isopropylmalonic acid)"
CC(C)C(C(O)=O)C(O)=O,2.93,5:8,carboxylic_acid:carboxylic_acid,"2-Methylpropane-1,1-dicarboxylic acid (Isopropylmalonic acid)"
CC(C)CC(C(O)=O)C(O)=O,5.36,6:9,carboxylic_acid:carboxylic_acid,"3-Methylbutane-1,1-dicarboxylic acid (Isobutylmalonic acid)"
CC(C)CC(C(O)=O)C(O)=O,2.87,6:9,carboxylic_acid:carboxylic_acid,"3-Methylbutane-1,1-dicarboxylic acid (Isobutylmalonic acid)"
CC(C)(C)C(C(O)=O)C(O)=O,7.03,6,carboxylic_acid,"2,2-Dimethylpropane-1,1-dicarboxylic acid (t-Butylmalonic acid)"
OC(=O)C(CC=C)C(O)=O,5.24,0:8,carboxylic_acid:carboxylic_acid,"But-3-ene-1,1-dicarboxylic acid (Allylmalonic acid)"
OC(=O)C(CC=C)C(O)=O,2.63,0:8,carboxylic_acid:carboxylic_acid,"But-3-ene-1,1-dicarboxylic acid (Allylmalonic acid)"
OC(=O)C(CCC=C)C(O)=O,5.35,0:9,carboxylic_acid:carboxylic_acid,"Pent-4-ene-1,1-dicarboxylic acid"
OC(=O)C(CCC=C)C(O)=O,2.74,0:9,carboxylic_acid:carboxylic_acid,"Pent-4-ene-1,1-dicarboxylic acid"
OC(=O)C(CCCC=C)C(O)=O,5.37,0:10,carboxylic_acid:carboxylic_acid,"Hex-5-ene-1,1-dicarboxylic acid"
OC(=O)C(CCCC=C)C(O)=O,2.77,0:10,carboxylic_acid:carboxylic_acid,"Hex-5-ene-1,1-dicarboxylic acid"
OC(=O)C(Cc1ccccc1)C(O)=O,5.02,0:12,carboxylic_acid:carboxylic_acid,"2-Phenylethane-1,1-dicarboxylic acid (Benzylmalonic acid)"
OC(=O)C(Cc1ccccc1)C(O)=O,5.86,0:12,carboxylic_acid:carboxylic_acid,"2-Phenylethane-1,1-dicarboxylic acid (Benzylmalonic acid)"
OC(=O)C(Cc1ccccc1)C(O)=O,2.6,0:12,carboxylic_acid:carboxylic_acid,"2-Phenylethane-1,1-dicarboxylic acid (Benzylmalonic acid)"
OC(=O)C(Cc1ccccc1)C(O)=O,2.91,0:12,carboxylic_acid:carboxylic_acid,"2-Phenylethane-1,1-dicarboxylic acid (Benzylmalonic acid)"
OC(=O)C(C(O)=O)c1ccccc1,5.1,0:5,carboxylic_acid:carboxylic_acid,Phenylmethanedicarboxylic acid (Phenylmalonic acid)
OC(=O)C(C(O)=O)c1ccccc1,4.94,0:5,carboxylic_acid:carboxylic_acid,Phenylmethanedicarboxylic acid (Phenylmalonic acid)
OC(=O)C(C(O)=O)c1ccccc1,5.59,0:5,carboxylic_acid:carboxylic_acid,Phenylmethanedicarboxylic acid (Phenylmalonic acid)
OC(=O)C(C(O)=O)c1ccccc1,2.34,0:5,carboxylic_acid:carboxylic_acid,Phenylmethanedicarboxylic acid (Phenylmalonic acid)
OC(=O)C(C(O)=O)c1ccccc1,2.18,0:5,carboxylic_acid:carboxylic_acid,Phenylmethanedicarboxylic acid (Phenylmalonic acid)
OC(=O)C(C(O)=O)c1ccccc1,2.52,0:5,carboxylic_acid:carboxylic_acid,Phenylmethanedicarboxylic acid (Phenylmalonic acid)
CC(C)(C(O)=O)C(O)=O,5.68,4:7,carboxylic_acid:carboxylic_acid,"Propane-2,2-dicarboxylic acid (Dimethylmalonic acid)"
CC(C)(C(O)=O)C(O)=O,5.78,4:7,carboxylic_acid:carboxylic_acid,"Propane-2,2-dicarboxylic acid (Dimethylmalonic acid)"
CC(C)(C(O)=O)C(O)=O,5.42,4:7,carboxylic_acid:carboxylic_acid,"Propane-2,2-dicarboxylic acid (Dimethylmalonic acid)"
CC(C)(C(O)=O)C(O)=O,5.46,4:7,carboxylic_acid:carboxylic_acid,"Propane-2,2-dicarboxylic acid (Dimethylmalonic acid)"
CC(C)(C(O)=O)C(O)=O,6.06,4:7,carboxylic_acid:carboxylic_acid,"Propane-2,2-dicarboxylic acid (Dimethylmalonic acid)"
CC(C)(C(O)=O)C(O)=O,2.97,4:7,carboxylic_acid:carboxylic_acid,"Propane-2,2-dicarboxylic acid (Dimethylmalonic acid)"
CC(C)(C(O)=O)C(O)=O,2.87,4:7,carboxylic_acid:carboxylic_acid,"Propane-2,2-dicarboxylic acid (Dimethylmalonic acid)"
CC(C)(C(O)=O)C(O)=O,3.17,4:7,carboxylic_acid:carboxylic_acid,"Propane-2,2-dicarboxylic acid (Dimethylmalonic acid)"
CCC(C)(C(O)=O)C(O)=O,6.41,5:8,carboxylic_acid:carboxylic_acid,"Butane-2,2-dicarboxylic acid (Ethylmethylmalonic acid)"
CCC(C)(C(O)=O)C(O)=O,2.86,5:8,carboxylic_acid:carboxylic_acid,"Butane-2,2-dicarboxylic acid (Ethylmethylmalonic acid)"
CCC(CC)(C(O)=O)C(O)=O,6.96,6:9,carboxylic_acid:carboxylic_acid,"Pentane-3,3-dicarboxylic acid (Diethylmalonic acid)"
CCC(CC)(C(O)=O)C(O)=O,6.62,6:9,carboxylic_acid:carboxylic_acid,"Pentane-3,3-dicarboxylic acid (Diethylmalonic acid)"
CCC(CC)(C(O)=O)C(O)=O,6.8,6:9,carboxylic_acid:carboxylic_acid,"Pentane-3,3-dicarboxylic acid (Diethylmalonic acid)"
CCC(CC)(C(O)=O)C(O)=O,7.417,6:9,carboxylic_acid:carboxylic_acid,"Pentane-3,3-dicarboxylic acid (Diethylmalonic acid)"
CCC(CC)(C(O)=O)C(O)=O,2.0,6:9,carboxylic_acid:carboxylic_acid,"Pentane-3,3-dicarboxylic acid (Diethylmalonic acid)"
CCC(CC)(C(O)=O)C(O)=O,1.9,6:9,carboxylic_acid:carboxylic_acid,"Pentane-3,3-dicarboxylic acid (Diethylmalonic acid)"
CCC(CC)(C(O)=O)C(O)=O,2.152,6:9,carboxylic_acid:carboxylic_acid,"Pentane-3,3-dicarboxylic acid (Diethylmalonic acid)"
CCCC(CC)(C(O)=O)C(O)=O,7.43,7:10,carboxylic_acid:carboxylic_acid,"Hexane-3,3-dicarboxylic acid (Ethylpropylmalonic acid)"
CCCC(CC)(C(O)=O)C(O)=O,2.15,7:10,carboxylic_acid:carboxylic_acid,"Hexane-3,3-dicarboxylic acid (Ethylpropylmalonic acid)"
CCCC(CC)(C(O)=O)C(O)=O,7.99,7:10,carboxylic_acid:carboxylic_acid,"2-Methylpentane-3,3-dicarboxylic acid (Ethyl-2-propylmalonic acid)"
CCCC(CC)(C(O)=O)C(O)=O,1.92,7:10,carboxylic_acid:carboxylic_acid,"2-Methylpentane-3,3-dicarboxylic acid (Ethyl-2-propylmalonic acid)"
CCCCC(CC)(C(O)=O)C(O)=O,7.14,8:11,carboxylic_acid:carboxylic_acid,"Heptane-3,3-dicarboxylic acid (Butylethylmalonic acid)"
CCCCC(CC)(C(O)=O)C(O)=O,7.58,8:11,carboxylic_acid:carboxylic_acid,"Heptane-3,3-dicarboxylic acid (Butylethylmalonic acid)"
CCCCC(CC)(C(O)=O)C(O)=O,2.04,8:11,carboxylic_acid:carboxylic_acid,"Heptane-3,3-dicarboxylic acid (Butylethylmalonic acid)"
CCCC(CCC)(C(O)=O)C(O)=O,7.18,8:11,carboxylic_acid:carboxylic_acid,"Heptane-4,4-dicarboxylic acid (Dipropylmalonic acid)"
CCCC(CCC)(C(O)=O)C(O)=O,7.55,8:11,carboxylic_acid:carboxylic_acid,"Heptane-4,4-dicarboxylic acid (Dipropylmalonic acid)"
CCCC(CCC)(C(O)=O)C(O)=O,1.84,8:11,carboxylic_acid:carboxylic_acid,"Heptane-4,4-dicarboxylic acid (Dipropylmalonic acid)"
CCCC(CCC)(C(O)=O)C(O)=O,2.07,8:11,carboxylic_acid:carboxylic_acid,"Heptane-4,4-dicarboxylic acid (Dipropylmalonic acid)"
CCC(C)C(CC)(C(O)=O)C(O)=O,8.4,8,carboxylic_acid,"4-Methylhexane-3,3-dicarboxylic acid (s-Butylethylmalonic acid)"
CCC(CCC(C)C)(C(O)=O)C(O)=O,7.2,9:12,carboxylic_acid:carboxylic_acid,"6-Methylheptane-3,3-dicarboxylic acid (Ethylisopentylmalonic acid)"
CCC(CCC(C)C)(C(O)=O)C(O)=O,2.04,9:12,carboxylic_acid:carboxylic_acid,"6-Methylheptane-3,3-dicarboxylic acid (Ethylisopentylmalonic acid)"
CCCCC(CCCC)(C(O)=O)C(O)=O,7.22,10:13,carboxylic_acid:carboxylic_acid,"Nonane-5,5-dicarboxylic acid (Dibutylmalonic acid)"
CCCCC(CCCC)(C(O)=O)C(O)=O,7.7,10:13,carboxylic_acid:carboxylic_acid,"Nonane-5,5-dicarboxylic acid (Dibutylmalonic acid)"
CCCCC(CCCC)(C(O)=O)C(O)=O,7.33,10:13,carboxylic_acid:carboxylic_acid,"Nonane-5,5-dicarboxylic acid (Dibutylmalonic acid)"
CCCCC(CCCC)(C(O)=O)C(O)=O,1.93,10:13,carboxylic_acid:carboxylic_acid,"Nonane-5,5-dicarboxylic acid (Dibutylmalonic acid)"
CCCCC(CCCC)(C(O)=O)C(O)=O,2.16,10:13,carboxylic_acid:carboxylic_acid,"Nonane-5,5-dicarboxylic acid (Dibutylmalonic acid)"
CCCCCCCC(CCCCCCC)(C(O)=O)C(O)=O,7.34,16,carboxylic_acid,"Pentadecane-8,8-dicarboxylic acid (Diheptylmalonic acid)"
OC(=O)C1(CC1)C(O)=O,7.19,0:7,carboxylic_acid:carboxylic_acid,"Cyclopropane-1,1-dicarboxylic acid"
OC(=O)C1(CC1)C(O)=O,6.9,0:7,carboxylic_acid:carboxylic_acid,"Cyclopropane-1,1-dicarboxylic acid"
OC(=O)C1(CC1)C(O)=O,1.62,0:7,carboxylic_acid:carboxylic_acid,"Cyclopropane-1,1-dicarboxylic acid"
OC(=O)C1(CC1)C(O)=O,1.49,0:7,carboxylic_acid:carboxylic_acid,"Cyclopropane-1,1-dicarboxylic acid"
OC(=O)C1(CCC1)C(O)=O,5.47,0:8,carboxylic_acid:carboxylic_acid,"Cyclobutane-1,1-dicarboxylic acid"
OC(=O)C1(CCC1)C(O)=O,5.25,0:8,carboxylic_acid:carboxylic_acid,"Cyclobutane-1,1-dicarboxylic acid"
OC(=O)C1(CCC1)C(O)=O,2.94,0:8,carboxylic_acid:carboxylic_acid,"Cyclobutane-1,1-dicarboxylic acid"
OC(=O)C1(CCC1)C(O)=O,2.85,0:8,carboxylic_acid:carboxylic_acid,"Cyclobutane-1,1-dicarboxylic acid"
OC(=O)C1(CCCC1)C(O)=O,5.79,0:9,carboxylic_acid:carboxylic_acid,"Cyclopentane-1,1-dicarboxylic acid"
OC(=O)C1(CCCC1)C(O)=O,5.49,0:9,carboxylic_acid:carboxylic_acid,"Cyclopentane-1,1-dicarboxylic acid"
OC(=O)C1(CCCC1)C(O)=O,3.07,0:9,carboxylic_acid:carboxylic_acid,"Cyclopentane-1,1-dicarboxylic acid"
OC(=O)C1(CCCC1)C(O)=O,2.96,0:9,carboxylic_acid:carboxylic_acid,"Cyclopentane-1,1-dicarboxylic acid"
OC(=O)C1(CCCCC1)C(O)=O,5.7,0:10,carboxylic_acid:carboxylic_acid,"Cyclohexane-1,1-dicarboxylic acid"
OC(=O)C1(CCCCC1)C(O)=O,3.3,0:10,carboxylic_acid:carboxylic_acid,"Cyclohexane-1,1-dicarboxylic acid"
CCC(C(O)=O)(C(O)=O)c1ccccc1,7.01,4:7,carboxylic_acid:carboxylic_acid,"1-Phenylpropane-1,1-dicarboxylic acid (Ethylphenylmalonic acid)"
CCC(C(O)=O)(C(O)=O)c1ccccc1,1.8,4:7,carboxylic_acid:carboxylic_acid,"1-Phenylpropane-1,1-dicarboxylic acid (Ethylphenylmalonic acid)"
OC(=O)C(=Cc1ccccc1)C(O)=O,4.77,0:12,carboxylic_acid:carboxylic_acid,"2-Phenylethene-1,1-dicarboxylic acid (Benzalmalonic acid)"
OC(=O)C(=Cc1ccccc1)C(O)=O,2.11,0:12,carboxylic_acid:carboxylic_acid,"2-Phenylethene-1,1-dicarboxylic acid (Benzalmalonic acid)"
OC(=O)C(Cc1ccccc1)(Cc2ccccc2)C(O)=O,7.75,0,carboxylic_acid,"1,3-Diphenylpropane-2,2-dicarboxylic acid (Dibenzylmalonic acid)"
OC(=O)CCC(O)=O,5.24,0:6,carboxylic_acid:carboxylic_acid,Butanedioic acid (Succinic acid)
OC(=O)CCC(O)=O,5.31,0:6,carboxylic_acid:carboxylic_acid,Butanedioic acid (Succinic acid)
OC(=O)CCC(O)=O,5.2,0:6,carboxylic_acid:carboxylic_acid,Butanedioic acid (Succinic acid)
OC(=O)CCC(O)=O,5.29,0:6,carboxylic_acid:carboxylic_acid,Butanedioic acid (Succinic acid)