SMILES,pKa,Dissociable_Atoms,Functional_Group,Name,Dissociable_Atoms_Ordered,Functional_Group_Ordered,Dissociation_Order
OC(=O)C[P](O)(O)=O,4.57,0:4:5,carboxylic_acid:phosphate:phosphate,Phosphonoacetic acid,0:4:5,carboxylic_acid:phosphate:phosphate,0(carboxylic_acid) > 4(phosphate) > 5(phosphate)
OC(=O)C[P](O)(O)=O,5.11,0:4:5,carboxylic_acid:phosphate:phosphate,Phosphonoacetic acid,0:4:5,carboxylic_acid:phosphate:phosphate,0(carboxylic_acid) > 4(phosphate) > 5(phosphate)
OC(=O)C[P](O)(O)=O,2.0,0:4:5,carboxylic_acid:phosphate:phosphate,Phosphonoacetic acid,0:4:5,carboxylic_acid:phosphate:phosphate,0(carboxylic_acid) > 4(phosphate) > 5(phosphate)
OC(=O)C[P](O)(O)=O,1.1,0:4:5,carboxylic_acid:phosphate:phosphate,Phosphonoacetic acid,0:4:5,carboxylic_acid:phosphate:phosphate,0(carboxylic_acid) > 4(phosphate) > 5(phosphate)
OC(=O)C[P](O)(O)=O,0.9,0:4:5,carboxylic_acid:phosphate:phosphate,Phosphonoacetic acid,0:4:5,carboxylic_acid:phosphate:phosphate,0(carboxylic_acid) > 4(phosphate) > 5(phosphate)
CC(C(O)=O)[P](O)(O)=O,8.54,3:5:6,carboxylic_acid:phosphate:phosphate,2-Phosphonopropanoic acid,3:5:6,carboxylic_acid:phosphate:phosphate,3(carboxylic_acid) > 5(phosphate) > 6(phosphate)
CC(C(O)=O)[P](O)(O)=O,5.15,3:5:6,carboxylic_acid:phosphate:phosphate,2-Phosphonopropanoic acid,3:5:6,carboxylic_acid:phosphate:phosphate,3(carboxylic_acid) > 5(phosphate) > 6(phosphate)
CC(C(O)=O)[P](O)(O)=O,1.8,3:5:6,carboxylic_acid:phosphate:phosphate,2-Phosphonopropanoic acid,3:5:6,carboxylic_acid:phosphate:phosphate,3(carboxylic_acid) > 5(phosphate) > 6(phosphate)
OC(=O)CC[P](O)(O)=O,7.71,0:5:6,carboxylic_acid:phosphate:phosphate,3-Phosphonopropanoic acid,0:5:6,carboxylic_acid:phosphate:phosphate,0(carboxylic_acid) > 5(phosphate) > 6(phosphate)
OC(=O)CC[P](O)(O)=O,7.75,0:5:6,carboxylic_acid:phosphate:phosphate,3-Phosphonopropanoic acid,0:5:6,carboxylic_acid:phosphate:phosphate,0(carboxylic_acid) > 5(phosphate) > 6(phosphate)
OC(=O)CC[P](O)(O)=O,7.83,0:5:6,carboxylic_acid:phosphate:phosphate,3-Phosphonopropanoic acid,0:5:6,carboxylic_acid:phosphate:phosphate,0(carboxylic_acid) > 5(phosphate) > 6(phosphate)
OC(=O)CC[P](O)(O)=O,4.52,0:5:6,carboxylic_acid:phosphate:phosphate,3-Phosphonopropanoic acid,0:5:6,carboxylic_acid:phosphate:phosphate,0(carboxylic_acid) > 5(phosphate) > 6(phosphate)
OC(=O)CC[P](O)(O)=O,4.63,0:5:6,carboxylic_acid:phosphate:phosphate,3-Phosphonopropanoic acid,0:5:6,carboxylic_acid:phosphate:phosphate,0(carboxylic_acid) > 5(phosphate) > 6(phosphate)
OC(=O)CC[P](O)(O)=O,4.6,0:5:6,carboxylic_acid:phosphate:phosphate,3-Phosphonopropanoic acid,0:5:6,carboxylic_acid:phosphate:phosphate,0(carboxylic_acid) > 5(phosphate) > 6(phosphate)
OC(=O)CC[P](O)(O)=O,2.26,0:5:6,carboxylic_acid:phosphate:phosphate,3-Phosphonopropanoic acid,0:5:6,carboxylic_acid:phosphate:phosphate,0(carboxylic_acid) > 5(phosphate) > 6(phosphate)
OC(=O)CC[P](O)(O)=O,2.0,0:5:6,carboxylic_acid:phosphate:phosphate,3-Phosphonopropanoic acid,0:5:6,carboxylic_acid:phosphate:phosphate,0(carboxylic_acid) > 5(phosphate) > 6(phosphate)
OC(=O)C(=C)O[P](O)(O)=O,6.14,0:6,carboxylic_acid:phosphate,2-Hydroxypropenoic acid 2-(dihydrogenphosphate) (Phosphoenolpyruvic acid),0:6,carboxylic_acid:phosphate,0(carboxylic_acid) > 6(phosphate)
OC(=O)C(=C)O[P](O)(O)=O,6.35,0:6,carboxylic_acid:phosphate,2-Hydroxypropenoic acid 2-(dihydrogenphosphate) (Phosphoenolpyruvic acid),0:6,carboxylic_acid:phosphate,0(carboxylic_acid) > 6(phosphate)
OC(=O)C(=C)O[P](O)(O)=O,3.45,0:6,carboxylic_acid:phosphate,2-Hydroxypropenoic acid 2-(dihydrogenphosphate) (Phosphoenolpyruvic acid),0:6,carboxylic_acid:phosphate,0(carboxylic_acid) > 6(phosphate)
OCC(O[P](O)(=O)O[P](O)(O)=O)C(O)=O,7.2,13:0:4,carboxylic_acid:alcohol:phosphate,"DL-2,3-Dihydroxypropanoic acid 2,3-bis(dihydrogenphosphate) (Diphosphoglyceric acid)",13:4:0,carboxylic_acid:phosphate:alcohol,13(carboxylic_acid) > 4(phosphate) > 0(alcohol)
OCC(O[P](O)(=O)O[P](O)(O)=O)C(O)=O,7.86,13:0:4,carboxylic_acid:alcohol:phosphate,"DL-2,3-Dihydroxypropanoic acid 2,3-bis(dihydrogenphosphate) (Diphosphoglyceric acid)",13:4:0,carboxylic_acid:phosphate:alcohol,13(carboxylic_acid) > 4(phosphate) > 0(alcohol)
OCC(O[P](O)(=O)O[P](O)(O)=O)C(O)=O,6.02,13:0:4,carboxylic_acid:alcohol:phosphate,"DL-2,3-Dihydroxypropanoic acid 2,3-bis(dihydrogenphosphate) (Diphosphoglyceric acid)",13:4:0,carboxylic_acid:phosphate:alcohol,13(carboxylic_acid) > 4(phosphate) > 0(alcohol)
OCC(O[P](O)(=O)O[P](O)(O)=O)C(O)=O,6.37,13:0:4,carboxylic_acid:alcohol:phosphate,"DL-2,3-Dihydroxypropanoic acid 2,3-bis(dihydrogenphosphate) (Diphosphoglyceric acid)",13:4:0,carboxylic_acid:phosphate:alcohol,13(carboxylic_acid) > 4(phosphate) > 0(alcohol)
OCC(O[P](O)(=O)O[P](O)(O)=O)C(O)=O,3.19,13:0:4,carboxylic_acid:alcohol:phosphate,"DL-2,3-Dihydroxypropanoic acid 2,3-bis(dihydrogenphosphate) (Diphosphoglyceric acid)",13:4:0,carboxylic_acid:phosphate:alcohol,13(carboxylic_acid) > 4(phosphate) > 0(alcohol)
ONC(=O)CCCC(O)=O,9.39,8:1,carboxylic_acid:amine_secondary,3-Carboxypropanohydroxamic acid (N-Hydroxyglutaramic acid),8:1,carboxylic_acid:amine_secondary,8(carboxylic_acid) > 1(amine_secondary)
ONC(=O)CCCC(O)=O,4.37,8:1,carboxylic_acid:amine_secondary,3-Carboxypropanohydroxamic acid (N-Hydroxyglutaramic acid),8:1,carboxylic_acid:amine_secondary,8(carboxylic_acid) > 1(amine_secondary)
C[C@H](N[S](=O)(=O)c1ccc(C)cc1)C(O)=O,12.05,2:14,amine_secondary:carboxylic_acid,L-2-(4-Methylphenylsulfonylamino)propanoic acid (N-Tosylalanine),14:2,carboxylic_acid:amine_secondary,14(carboxylic_acid) > 2(amine_secondary)
C[C@H](N[S](=O)(=O)c1ccc(C)cc1)C(O)=O,3.39,2:14,amine_secondary:carboxylic_acid,L-2-(4-Methylphenylsulfonylamino)propanoic acid (N-Tosylalanine),14:2,carboxylic_acid:amine_secondary,14(carboxylic_acid) > 2(amine_secondary)
NC1=C(NC(=O)NC1=O)C(O)=O,8.72,10:3,carboxylic_acid:amine_secondary,"5-Amino-1,3-dihydro-1,3-diazine-2,4-dione-6-carboxylic acid (5-Aminoorotic acid)",10:3,carboxylic_acid:amine_secondary,10(carboxylic_acid) > 3(amine_secondary)
NC1=C(NC(=O)NC1=O)C(O)=O,2.63,10:3,carboxylic_acid:amine_secondary,"5-Amino-1,3-dihydro-1,3-diazine-2,4-dione-6-carboxylic acid (5-Aminoorotic acid)",10:3,carboxylic_acid:amine_secondary,10(carboxylic_acid) > 3(amine_secondary)
OC(=O)C1=CC(=O)NC(=O)N1,9.29,0:7,carboxylic_acid:amine_secondary,"1,3-Dihydro-1,3-diazine-2,4-dione-6-carboxylic acid (Uracil-6-carboxylic acid) (Orotic acid)",0:7,carboxylic_acid:amine_secondary,0(carboxylic_acid) > 7(amine_secondary)
OC(=O)C1=CC(=O)NC(=O)N1,9.13,0:7,carboxylic_acid:amine_secondary,"1,3-Dihydro-1,3-diazine-2,4-dione-6-carboxylic acid (Uracil-6-carboxylic acid) (Orotic acid)",0:7,carboxylic_acid:amine_secondary,0(carboxylic_acid) > 7(amine_secondary)
OC(=O)C1=CC(=O)NC(=O)N1,9.6,0:7,carboxylic_acid:amine_secondary,"1,3-Dihydro-1,3-diazine-2,4-dione-6-carboxylic acid (Uracil-6-carboxylic acid) (Orotic acid)",0:7,carboxylic_acid:amine_secondary,0(carboxylic_acid) > 7(amine_secondary)
OC(=O)C1=CC(=O)NC(=O)N1,2.0,0:7,carboxylic_acid:amine_secondary,"1,3-Dihydro-1,3-diazine-2,4-dione-6-carboxylic acid (Uracil-6-carboxylic acid) (Orotic acid)",0:7,carboxylic_acid:amine_secondary,0(carboxylic_acid) > 7(amine_secondary)
OC(=O)C1=CC(=O)NC(=O)N1,1.8,0:7,carboxylic_acid:amine_secondary,"1,3-Dihydro-1,3-diazine-2,4-dione-6-carboxylic acid (Uracil-6-carboxylic acid) (Orotic acid)",0:7,carboxylic_acid:amine_secondary,0(carboxylic_acid) > 7(amine_secondary)
OC(=O)C1=CNC(=O)NC1=O,8.78,0:5,carboxylic_acid:amine_secondary,"1,3-Dihydro-1,3-diazine-2,4-dione-5-carboxylic acid (Uracil-5-carboxylic acid) (Isoorotic acid)",0:5,carboxylic_acid:amine_secondary,0(carboxylic_acid) > 5(amine_secondary)
OC(=O)C1=CNC(=O)NC1=O,4.05,0:5,carboxylic_acid:amine_secondary,"1,3-Dihydro-1,3-diazine-2,4-dione-5-carboxylic acid (Uracil-5-carboxylic acid) (Isoorotic acid)",0:5,carboxylic_acid:amine_secondary,0(carboxylic_acid) > 5(amine_secondary)
OC(=O)C1=C(Br)C(=O)NC(=O)N1,7.22,0:8,carboxylic_acid:amine_secondary,"5-Bromo-1,3-dihydro-1,3-diazine-2,4-dione-6-carboxylic acid (5-Bromoorotic acid)",0:8,carboxylic_acid:amine_secondary,0(carboxylic_acid) > 8(amine_secondary)
OC(=O)C1=C(Br)C(=O)NC(=O)N1,2.27,0:8,carboxylic_acid:amine_secondary,"5-Bromo-1,3-dihydro-1,3-diazine-2,4-dione-6-carboxylic acid (5-Bromoorotic acid)",0:8,carboxylic_acid:amine_secondary,0(carboxylic_acid) > 8(amine_secondary)
OC(=O)C1=C(I)C(=O)NC(=O)N1,7.52,0:8,carboxylic_acid:amine_secondary,"5-Iodo-1,3-dihydro-1,3-diazine-2,4-dione-6-carboxylic acid (5-Iodoorotic acid)",0:8,carboxylic_acid:amine_secondary,0(carboxylic_acid) > 8(amine_secondary)
OC(=O)C1=C(I)C(=O)NC(=O)N1,1.8,0:8,carboxylic_acid:amine_secondary,"5-Iodo-1,3-dihydro-1,3-diazine-2,4-dione-6-carboxylic acid (5-Iodoorotic acid)",0:8,carboxylic_acid:amine_secondary,0(carboxylic_acid) > 8(amine_secondary)
OC(=O)CS,10.11,0:4,carboxylic_acid:thiol,Mercaptoacetic acid (Thioglycolic acid),0:4,carboxylic_acid:thiol,0(carboxylic_acid) > 4(thiol)
OC(=O)CS,9.96,0:4,carboxylic_acid:thiol,Mercaptoacetic acid (Thioglycolic acid),0:4,carboxylic_acid:thiol,0(carboxylic_acid) > 4(thiol)
OC(=O)CS,9.99,0:4,carboxylic_acid:thiol,Mercaptoacetic acid (Thioglycolic acid),0:4,carboxylic_acid:thiol,0(carboxylic_acid) > 4(thiol)
OC(=O)CS,10.61,0:4,carboxylic_acid:thiol,Mercaptoacetic acid (Thioglycolic acid),0:4,carboxylic_acid:thiol,0(carboxylic_acid) > 4(thiol)
OC(=O)CS,3.48,0:4,carboxylic_acid:thiol,Mercaptoacetic acid (Thioglycolic acid),0:4,carboxylic_acid:thiol,0(carboxylic_acid) > 4(thiol)
OC(=O)CS,3.44,0:4,carboxylic_acid:thiol,Mercaptoacetic acid (Thioglycolic acid),0:4,carboxylic_acid:thiol,0(carboxylic_acid) > 4(thiol)
OC(=O)CS,3.53,0:4,carboxylic_acid:thiol,Mercaptoacetic acid (Thioglycolic acid),0:4,carboxylic_acid:thiol,0(carboxylic_acid) > 4(thiol)
OC(=O)CS,3.83,0:4,carboxylic_acid:thiol,Mercaptoacetic acid (Thioglycolic acid),0:4,carboxylic_acid:thiol,0(carboxylic_acid) > 4(thiol)
OC(=O)CS,3.64,0:4,carboxylic_acid:thiol,Mercaptoacetic acid (Thioglycolic acid),0:4,carboxylic_acid:thiol,0(carboxylic_acid) > 4(thiol)
CC(O)C(O)=S,10.08,2:4,alcohol:alcohol,DL-2-Mercaptopropanoic acid (Thiolactic acid),2:4,alcohol:alcohol,2(alcohol) > 4(alcohol)
CC(O)C(O)=S,9.95,2:4,alcohol:alcohol,DL-2-Mercaptopropanoic acid (Thiolactic acid),2:4,alcohol:alcohol,2(alcohol) > 4(alcohol)
CC(O)C(O)=S,10.25,2:4,alcohol:alcohol,DL-2-Mercaptopropanoic acid (Thiolactic acid),2:4,alcohol:alcohol,2(alcohol) > 4(alcohol)
CC(O)C(O)=S,3.48,2:4,alcohol:alcohol,DL-2-Mercaptopropanoic acid (Thiolactic acid),2:4,alcohol:alcohol,2(alcohol) > 4(alcohol)
CC(O)C(O)=S,3.38,2:4,alcohol:alcohol,DL-2-Mercaptopropanoic acid (Thiolactic acid),2:4,alcohol:alcohol,2(alcohol) > 4(alcohol)
CC(O)C(O)=S,3.96,2:4,alcohol:alcohol,DL-2-Mercaptopropanoic acid (Thiolactic acid),2:4,alcohol:alcohol,2(alcohol) > 4(alcohol)
CC(O)C(O)=S,3.69,2:4,alcohol:alcohol,DL-2-Mercaptopropanoic acid (Thiolactic acid),2:4,alcohol:alcohol,2(alcohol) > 4(alcohol)
CC(C)(S)C(O)=O,3.9,3:5,thiol:carboxylic_acid,2-Mercapto-2-methylpropanoic acid,5:3,carboxylic_acid:thiol,5(carboxylic_acid) > 3(thiol)
OC(=O)CCS,10.1,0:5,carboxylic_acid:thiol,3-Mercaptopropanoic acid,0:5,carboxylic_acid:thiol,0(carboxylic_acid) > 5(thiol)
OC(=O)CCS,10.6,0:5,carboxylic_acid:thiol,3-Mercaptopropanoic acid,0:5,carboxylic_acid:thiol,0(carboxylic_acid) > 5(thiol)
OC(=O)CCS,10.84,0:5,carboxylic_acid:thiol,3-Mercaptopropanoic acid,0:5,carboxylic_acid:thiol,0(carboxylic_acid) > 5(thiol)
OC(=O)CCS,4.16,0:5,carboxylic_acid:thiol,3-Mercaptopropanoic acid,0:5,carboxylic_acid:thiol,0(carboxylic_acid) > 5(thiol)
OC(=O)CCS,4.12,0:5,carboxylic_acid:thiol,3-Mercaptopropanoic acid,0:5,carboxylic_acid:thiol,0(carboxylic_acid) > 5(thiol)
OC(=O)CCS,4.58,0:5,carboxylic_acid:thiol,3-Mercaptopropanoic acid,0:5,carboxylic_acid:thiol,0(carboxylic_acid) > 5(thiol)
OC(=O)CCS,4.34,0:5,carboxylic_acid:thiol,3-Mercaptopropanoic acid,0:5,carboxylic_acid:thiol,0(carboxylic_acid) > 5(thiol)
CC(=O)N[C@@H](CS)C(O)=O,9.58,8:3,carboxylic_acid:amine_secondary,N-Acetyl-L-cysteine,8:3,carboxylic_acid:amine_secondary,8(carboxylic_acid) > 3(amine_secondary)
CC(=O)N[C@@H](CS)C(O)=O,9.36,8:3,carboxylic_acid:amine_secondary,N-Acetyl-L-cysteine,8:3,carboxylic_acid:amine_secondary,8(carboxylic_acid) > 3(amine_secondary)
CC(=O)N[C@@H](CS)C(O)=O,9.39,8:3,carboxylic_acid:amine_secondary,N-Acetyl-L-cysteine,8:3,carboxylic_acid:amine_secondary,8(carboxylic_acid) > 3(amine_secondary)
CC(=O)N[C@@H](CS)C(O)=O,3.11,8:3,carboxylic_acid:amine_secondary,N-Acetyl-L-cysteine,8:3,carboxylic_acid:amine_secondary,8(carboxylic_acid) > 3(amine_secondary)
CC(=O)N[C@@H](CS)C(O)=O,3.07,8:3,carboxylic_acid:amine_secondary,N-Acetyl-L-cysteine,8:3,carboxylic_acid:amine_secondary,8(carboxylic_acid) > 3(amine_secondary)
CC(=O)N[C@@H](C(O)=O)C(C)(C)S,10.1,6:3,carboxylic_acid:amine_secondary,N-Acetyl-D-penicillamine,6:3,carboxylic_acid:amine_secondary,6(carboxylic_acid) > 3(amine_secondary)
CC(=O)N[C@@H](C(O)=O)C(C)(C)S,10.04,6:3,carboxylic_acid:amine_secondary,N-Acetyl-D-penicillamine,6:3,carboxylic_acid:amine_secondary,6(carboxylic_acid) > 3(amine_secondary)
CC(=O)N[C@@H](C(O)=O)C(C)(C)S,9.77,6:3,carboxylic_acid:amine_secondary,N-Acetyl-D-penicillamine,6:3,carboxylic_acid:amine_secondary,6(carboxylic_acid) > 3(amine_secondary)
CC(=O)N[C@@H](C(O)=O)C(C)(C)S,3.29,6:3,carboxylic_acid:amine_secondary,N-Acetyl-D-penicillamine,6:3,carboxylic_acid:amine_secondary,6(carboxylic_acid) > 3(amine_secondary)
CC(=O)N[C@@H](C(O)=O)C(C)(C)S,3.36,6:3,carboxylic_acid:amine_secondary,N-Acetyl-D-penicillamine,6:3,carboxylic_acid:amine_secondary,6(carboxylic_acid) > 3(amine_secondary)
Nc1ccc(SCC(O)=O)cc1,4.48,0:8,amine_primary:carboxylic_acid,(4-Aminophenylthio)acetic acid,8:0,carboxylic_acid:amine_primary,8(carboxylic_acid) > 0(amine_primary)
Nc1ccc(SCC(O)=O)cc1,2.99,0:8,amine_primary:carboxylic_acid,(4-Aminophenylthio)acetic acid,8:0,carboxylic_acid:amine_primary,8(carboxylic_acid) > 0(amine_primary)
OC(=O)CNC(S)=S,6.67,0:4,carboxylic_acid:amine_secondary,N-(Dithiocarboxy)aminoacetic acid,0:4,carboxylic_acid:amine_secondary,0(carboxylic_acid) > 4(amine_secondary)
OC(=O)CNC(S)=S,3.75,0:4,carboxylic_acid:amine_secondary,N-(Dithiocarboxy)aminoacetic acid,0:4,carboxylic_acid:amine_secondary,0(carboxylic_acid) > 4(amine_secondary)
OC(=O)C(O)=O,3.8,0:4,carboxylic_acid:carboxylic_acid,Ethanedioic acid (Oxalic acid),0:4,carboxylic_acid:carboxylic_acid,0(carboxylic_acid) > 4(carboxylic_acid)
OC(=O)C(O)=O,3.82,0:4,carboxylic_acid:carboxylic_acid,Ethanedioic acid (Oxalic acid),0:4,carboxylic_acid:carboxylic_acid,0(carboxylic_acid) > 4(carboxylic_acid)
OC(=O)C(O)=O,3.93,0:4,carboxylic_acid:carboxylic_acid,Ethanedioic acid (Oxalic acid),0:4,carboxylic_acid:carboxylic_acid,0(carboxylic_acid) > 4(carboxylic_acid)
OC(=O)C(O)=O,3.86,0:4,carboxylic_acid:carboxylic_acid,Ethanedioic acid (Oxalic acid),0:4,carboxylic_acid:carboxylic_acid,0(carboxylic_acid) > 4(carboxylic_acid)
OC(=O)C(O)=O,3.89,0:4,carboxylic_acid:carboxylic_acid,Ethanedioic acid (Oxalic acid),0:4,carboxylic_acid:carboxylic_acid,0(carboxylic_acid) > 4(carboxylic_acid)
OC(=O)C(O)=O,3.99,0:4,carboxylic_acid:carboxylic_acid,Ethanedioic acid (Oxalic acid),0:4,carboxylic_acid:carboxylic_acid,0(carboxylic_acid) > 4(carboxylic_acid)
OC(=O)C(O)=O,3.62,0:4,carboxylic_acid:carboxylic_acid,Ethanedioic acid (Oxalic acid),0:4,carboxylic_acid:carboxylic_acid,0(carboxylic_acid) > 4(carboxylic_acid)
OC(=O)C(O)=O,3.69,0:4,carboxylic_acid:carboxylic_acid,Ethanedioic acid (Oxalic acid),0:4,carboxylic_acid:carboxylic_acid,0(carboxylic_acid) > 4(carboxylic_acid)
OC(=O)C(O)=O,3.95,0:4,carboxylic_acid:carboxylic_acid,Ethanedioic acid (Oxalic acid),0:4,carboxylic_acid:carboxylic_acid,0(carboxylic_acid) > 4(carboxylic_acid)
OC(=O)C(O)=O,3.53,0:4,carboxylic_acid:carboxylic_acid,Ethanedioic acid (Oxalic acid),0:4,carboxylic_acid:carboxylic_acid,0(carboxylic_acid) > 4(carboxylic_acid)
OC(=O)C(O)=O,3.57,0:4,carboxylic_acid:carboxylic_acid,Ethanedioic acid (Oxalic acid),0:4,carboxylic_acid:carboxylic_acid,0(carboxylic_acid) > 4(carboxylic_acid)
OC(=O)C(O)=O,3.63,0:4,carboxylic_acid:carboxylic_acid,Ethanedioic acid (Oxalic acid),0:4,carboxylic_acid:carboxylic_acid,0(carboxylic_acid) > 4(carboxylic_acid)
OC(=O)C(O)=O,4.07,0:4,carboxylic_acid:carboxylic_acid,Ethanedioic acid (Oxalic acid),0:4,carboxylic_acid:carboxylic_acid,0(carboxylic_acid) > 4(carboxylic_acid)
OC(=O)C(O)=O,3.51,0:4,carboxylic_acid:carboxylic_acid,Ethanedioic acid (Oxalic acid),0:4,carboxylic_acid:carboxylic_acid,0(carboxylic_acid) > 4(carboxylic_acid)
OC(=O)C(O)=O,3.6,0:4,carboxylic_acid:carboxylic_acid,Ethanedioic acid (Oxalic acid),0:4,carboxylic_acid:carboxylic_acid,0(carboxylic_acid) > 4(carboxylic_acid)
OC(=O)C(O)=O,3.83,0:4,carboxylic_acid:carboxylic_acid,Ethanedioic acid (Oxalic acid),0:4,carboxylic_acid:carboxylic_acid,0(carboxylic_acid) > 4(carboxylic_acid)
OC(=O)C(O)=O,3.76,0:4,carboxylic_acid:carboxylic_acid,Ethanedioic acid (Oxalic acid),0:4,carboxylic_acid:carboxylic_acid,0(carboxylic_acid) > 4(carboxylic_acid)
OC(=O)C(O)=O,4.01,0:4,carboxylic_acid:carboxylic_acid,Ethanedioic acid (Oxalic acid),0:4,carboxylic_acid:carboxylic_acid,0(carboxylic_acid) > 4(carboxylic_acid)
OC(=O)C(O)=O,4.23,0:4,carboxylic_acid:carboxylic_acid,Ethanedioic acid (Oxalic acid),0:4,carboxylic_acid:carboxylic_acid,0(carboxylic_acid) > 4(carboxylic_acid)
OC(=O)C(O)=O,4.71,0:4,carboxylic_acid:carboxylic_acid,Ethanedioic acid (Oxalic acid),0:4,carboxylic_acid:carboxylic_acid,0(carboxylic_acid) > 4(carboxylic_acid)
OC(=O)C(O)=O,5.11,0:4,carboxylic_acid:carboxylic_acid,Ethanedioic acid (Oxalic acid),0:4,carboxylic_acid:carboxylic_acid,0(carboxylic_acid) > 4(carboxylic_acid)
OC(=O)C(O)=O,4.218,0:4,carboxylic_acid:carboxylic_acid,Ethanedioic acid (Oxalic acid),0:4,carboxylic_acid:carboxylic_acid,0(carboxylic_acid) > 4(carboxylic_acid)
OC(=O)C(O)=O,4.266,0:4,carboxylic_acid:carboxylic_acid,Ethanedioic acid (Oxalic acid),0:4,carboxylic_acid:carboxylic_acid,0(carboxylic_acid) > 4(carboxylic_acid)
OC(=O)C(O)=O,4.338,0:4,carboxylic_acid:carboxylic_acid,Ethanedioic acid (Oxalic acid),0:4,carboxylic_acid:carboxylic_acid,0(carboxylic_acid) > 4(carboxylic_acid)
OC(=O)C(O)=O,1.2,0:4,carboxylic_acid:carboxylic_acid,Ethanedioic acid (Oxalic acid),0:4,carboxylic_acid:carboxylic_acid,0(carboxylic_acid) > 4(carboxylic_acid)
OC(=O)C(O)=O,1.1,0:4,carboxylic_acid:carboxylic_acid,Ethanedioic acid (Oxalic acid),0:4,carboxylic_acid:carboxylic_acid,0(carboxylic_acid) > 4(carboxylic_acid)
OC(=O)C(O)=O,1.07,0:4,carboxylic_acid:carboxylic_acid,Ethanedioic acid (Oxalic acid),0:4,carboxylic_acid:carboxylic_acid,0(carboxylic_acid) > 4(carboxylic_acid)
OC(=O)C(O)=O,1.27,0:4,carboxylic_acid:carboxylic_acid,Ethanedioic acid (Oxalic acid),0:4,carboxylic_acid:carboxylic_acid,0(carboxylic_acid) > 4(carboxylic_acid)
OC(=O)C(O)=O,1.43,0:4,carboxylic_acid:carboxylic_acid,Ethanedioic acid (Oxalic acid),0:4,carboxylic_acid:carboxylic_acid,0(carboxylic_acid) > 4(carboxylic_acid)
OC(=O)C(O)=O,1.75,0:4,carboxylic_acid:carboxylic_acid,Ethanedioic acid (Oxalic acid),0:4,carboxylic_acid:carboxylic_acid,0(carboxylic_acid) > 4(carboxylic_acid)
OC(=O)C(O)=O,2.13,0:4,carboxylic_acid:carboxylic_acid,Ethanedioic acid (Oxalic acid),0:4,carboxylic_acid:carboxylic_acid,0(carboxylic_acid) > 4(carboxylic_acid)
OC(=O)C(O)=O,1.25,0:4,carboxylic_acid:carboxylic_acid,Ethanedioic acid (Oxalic acid),0:4,carboxylic_acid:carboxylic_acid,0(carboxylic_acid) > 4(carboxylic_acid)
OC(=O)CC(O)=O,5.27,0:5,carboxylic_acid:carboxylic_acid,Propanedioic acid (Malonic acid),0:5,carboxylic_acid:carboxylic_acid,0(carboxylic_acid) > 5(carboxylic_acid)
OC(=O)CC(O)=O,5.39,0:5,carboxylic_acid:carboxylic_acid,Propanedioic acid (Malonic acid),0:5,carboxylic_acid:carboxylic_acid,0(carboxylic_acid) > 5(carboxylic_acid)
OC(=O)CC(O)=O,5.24,0:5,carboxylic_acid:carboxylic_acid,Propanedioic acid (Malonic acid),0:5,carboxylic_acid:carboxylic_acid,0(carboxylic_acid) > 5(carboxylic_acid)
OC(=O)CC(O)=O,5.06,0:5,carboxylic_acid:carboxylic_acid,Propanedioic acid (Malonic acid),0:5,carboxylic_acid:carboxylic_acid,0(carboxylic_acid) > 5(carboxylic_acid)