SMILES,pKa,Dissociable_Atoms,Functional_Group,Name,Dissociable_Atoms_Ordered,Functional_Group_Ordered,Dissociation_Order
CC(C)C[C@H](N)C(=O)N[C@@H](Cc1ccc(O)cc1)C(O)=O,3.23,19:5:8,carboxylic_acid:amine_primary:amine_secondary,L-Leucyl-L-tyrosine,19:5:8,carboxylic_acid:amine_primary:amine_secondary,19(carboxylic_acid) > 5(amine_primary) > 8(amine_secondary)
CC(C)C[C@@H](N)C(=O)N[C@@H](Cc1ccc(O)cc1)C(O)=O,10.36,19:5:8,carboxylic_acid:amine_primary:amine_secondary,D-Leucyl-L-tyrosine,19:5:8,carboxylic_acid:amine_primary:amine_secondary,19(carboxylic_acid) > 5(amine_primary) > 8(amine_secondary)
CC(C)C[C@@H](N)C(=O)N[C@@H](Cc1ccc(O)cc1)C(O)=O,8.34,19:5:8,carboxylic_acid:amine_primary:amine_secondary,D-Leucyl-L-tyrosine,19:5:8,carboxylic_acid:amine_primary:amine_secondary,19(carboxylic_acid) > 5(amine_primary) > 8(amine_secondary)
CC(C)C[C@@H](N)C(=O)N[C@@H](Cc1ccc(O)cc1)C(O)=O,2.9,19:5:8,carboxylic_acid:amine_primary:amine_secondary,D-Leucyl-L-tyrosine,19:5:8,carboxylic_acid:amine_primary:amine_secondary,19(carboxylic_acid) > 5(amine_primary) > 8(amine_secondary)
CC(C)C[C@H](NC(=O)[C@@H](N)Cc1ccccc1)C(O)=O,7.3,18:9,carboxylic_acid:amine_primary,L-Phenylalanyl-L-leucine,18:9,carboxylic_acid:amine_primary,18(carboxylic_acid) > 9(amine_primary)
CC(C)C[C@H](NC(=O)[C@@H](N)Cc1ccccc1)C(O)=O,3.41,18:9,carboxylic_acid:amine_primary,L-Phenylalanyl-L-leucine,18:9,carboxylic_acid:amine_primary,18(carboxylic_acid) > 9(amine_primary)
CC(C)C[C@H](NC(=O)[C@@H]1CCCN1)C(O)=O,9.04,14:5,carboxylic_acid:amine_secondary,L-Prolyl-L-leucine,14:5,carboxylic_acid:amine_secondary,14(carboxylic_acid) > 5(amine_secondary)
CC(C)C[C@H](NC(=O)[C@@H]1CCCN1)C(O)=O,3.09,14:5,carboxylic_acid:amine_secondary,L-Prolyl-L-leucine,14:5,carboxylic_acid:amine_secondary,14(carboxylic_acid) > 5(amine_secondary)
CC(C)C[C@H](NC(=O)[C@@H](N)Cc1ccc(O)cc1)C(O)=O,10.11,19:9:5,carboxylic_acid:amine_primary:amine_secondary,L-Tyrosyl-L-leucine,19:9:5,carboxylic_acid:amine_primary:amine_secondary,19(carboxylic_acid) > 9(amine_primary) > 5(amine_secondary)
CC(C)C[C@H](NC(=O)[C@@H](N)Cc1ccc(O)cc1)C(O)=O,7.41,19:9:5,carboxylic_acid:amine_primary:amine_secondary,L-Tyrosyl-L-leucine,19:9:5,carboxylic_acid:amine_primary:amine_secondary,19(carboxylic_acid) > 9(amine_primary) > 5(amine_secondary)
CC(C)C[C@H](NC(=O)[C@@H](N)Cc1ccc(O)cc1)C(O)=O,3.39,19:9:5,carboxylic_acid:amine_primary:amine_secondary,L-Tyrosyl-L-leucine,19:9:5,carboxylic_acid:amine_primary:amine_secondary,19(carboxylic_acid) > 9(amine_primary) > 5(amine_secondary)
CC(C)C[C@@H](NC(=O)[C@@H](N)Cc1ccc(O)cc1)C(O)=O,10.38,19:9:5,carboxylic_acid:amine_primary:amine_secondary,L-Tyrosyl-D-leucine,19:9:5,carboxylic_acid:amine_primary:amine_secondary,19(carboxylic_acid) > 9(amine_primary) > 5(amine_secondary)
CC(C)C[C@@H](NC(=O)[C@@H](N)Cc1ccc(O)cc1)C(O)=O,7.86,19:9:5,carboxylic_acid:amine_primary:amine_secondary,L-Tyrosyl-D-leucine,19:9:5,carboxylic_acid:amine_primary:amine_secondary,19(carboxylic_acid) > 9(amine_primary) > 5(amine_secondary)
CC(C)C[C@@H](NC(=O)[C@@H](N)Cc1ccc(O)cc1)C(O)=O,3.02,19:9:5,carboxylic_acid:amine_primary:amine_secondary,L-Tyrosyl-D-leucine,19:9:5,carboxylic_acid:amine_primary:amine_secondary,19(carboxylic_acid) > 9(amine_primary) > 5(amine_secondary)
CC(C)C[C@H](NC(=O)[C@@H](N)CO)C(O)=O,7.45,13:9,carboxylic_acid:amine_primary,L-Seryl-L-leucine,13:9,carboxylic_acid:amine_primary,13(carboxylic_acid) > 9(amine_primary)
CC(C)C[C@H](NC(=O)[C@@H](N)CO)C(O)=O,3.08,13:9,carboxylic_acid:amine_primary,L-Seryl-L-leucine,13:9,carboxylic_acid:amine_primary,13(carboxylic_acid) > 9(amine_primary)
CC(C)(N)C(=O)NC(C)(C)C(O)=O,8.26,11:3,carboxylic_acid:amine_primary,2-Methylalanyl-2-methylalanine,11:3,carboxylic_acid:amine_primary,11(carboxylic_acid) > 3(amine_primary)
CC(C)(N)C(=O)NC(C)(C)C(O)=O,3.67,11:3,carboxylic_acid:amine_primary,2-Methylalanyl-2-methylalanine,11:3,carboxylic_acid:amine_primary,11(carboxylic_acid) > 3(amine_primary)
N[C@@H](Cc1ccccc1)C(=O)N[C@@H](Cc2ccccc2)C(O)=O,7.27,21:0,carboxylic_acid:amine_primary,L-Phenylalanyl-L-phenylalanine,21:0,carboxylic_acid:amine_primary,21(carboxylic_acid) > 0(amine_primary)
N[C@@H](Cc1ccccc1)C(=O)N[C@@H](Cc2ccccc2)C(O)=O,3.26,21:0,carboxylic_acid:amine_primary,L-Phenylalanyl-L-phenylalanine,21:0,carboxylic_acid:amine_primary,21(carboxylic_acid) > 0(amine_primary)
N[C@@H](Cc1ccccc1)C(=O)N[C@@H](Cc2ccc(O)cc2)C(O)=O,9.99,22:0:11,carboxylic_acid:amine_primary:amine_secondary,L-Phenylalanyl-L-tyrosine,22:0:11,carboxylic_acid:amine_primary:amine_secondary,22(carboxylic_acid) > 0(amine_primary) > 11(amine_secondary)
N[C@@H](Cc1ccccc1)C(=O)N[C@@H](Cc2ccc(O)cc2)C(O)=O,7.23,22:0:11,carboxylic_acid:amine_primary:amine_secondary,L-Phenylalanyl-L-tyrosine,22:0:11,carboxylic_acid:amine_primary:amine_secondary,22(carboxylic_acid) > 0(amine_primary) > 11(amine_secondary)
N[C@@H](Cc1ccccc1)C(=O)N[C@@H](Cc2ccc(O)cc2)C(O)=O,3.25,22:0:11,carboxylic_acid:amine_primary:amine_secondary,L-Phenylalanyl-L-tyrosine,22:0:11,carboxylic_acid:amine_primary:amine_secondary,22(carboxylic_acid) > 0(amine_primary) > 11(amine_secondary)
N[C@@H](Cc1ccccc1)C(=O)N[C@@H](CS)C(O)=O,9.61,16:0:11,carboxylic_acid:amine_primary:amine_secondary,L-Phenylalanyl-L-cysteine,16:0:11,carboxylic_acid:amine_primary:amine_secondary,16(carboxylic_acid) > 0(amine_primary) > 11(amine_secondary)
N[C@@H](Cc1ccccc1)C(=O)N[C@@H](CS)C(O)=O,7.25,16:0:11,carboxylic_acid:amine_primary:amine_secondary,L-Phenylalanyl-L-cysteine,16:0:11,carboxylic_acid:amine_primary:amine_secondary,16(carboxylic_acid) > 0(amine_primary) > 11(amine_secondary)
N[C@@H](Cc1ccccc1)C(=O)N[C@@H](CS)C(O)=O,2.98,16:0:11,carboxylic_acid:amine_primary:amine_secondary,L-Phenylalanyl-L-cysteine,16:0:11,carboxylic_acid:amine_primary:amine_secondary,16(carboxylic_acid) > 0(amine_primary) > 11(amine_secondary)
CSCC[C@H](NC(=O)[C@@H](N)Cc1ccccc1)C(O)=O,7.27,18:9,carboxylic_acid:amine_primary,L-Phenylalanyl-L-methionine,18:9,carboxylic_acid:amine_primary,18(carboxylic_acid) > 9(amine_primary)
CSCC[C@H](NC(=O)[C@@H](N)Cc1ccccc1)C(O)=O,3.24,18:9,carboxylic_acid:amine_primary,L-Phenylalanyl-L-methionine,18:9,carboxylic_acid:amine_primary,18(carboxylic_acid) > 9(amine_primary)
N[C@@H](Cc1ccc(O)cc1)C(=O)N[C@@H](Cc2ccccc2)C(O)=O,10.09,22:0:12,carboxylic_acid:amine_primary:amine_secondary,L-Tyrosyl-L-phenylalanine,22:0:12,carboxylic_acid:amine_primary:amine_secondary,22(carboxylic_acid) > 0(amine_primary) > 12(amine_secondary)
N[C@@H](Cc1ccc(O)cc1)C(=O)N[C@@H](Cc2ccccc2)C(O)=O,7.36,22:0:12,carboxylic_acid:amine_primary:amine_secondary,L-Tyrosyl-L-phenylalanine,22:0:12,carboxylic_acid:amine_primary:amine_secondary,22(carboxylic_acid) > 0(amine_primary) > 12(amine_secondary)
N[C@@H](Cc1ccc(O)cc1)C(=O)N[C@@H](Cc2ccccc2)C(O)=O,3.16,22:0:12,carboxylic_acid:amine_primary:amine_secondary,L-Tyrosyl-L-phenylalanine,22:0:12,carboxylic_acid:amine_primary:amine_secondary,22(carboxylic_acid) > 0(amine_primary) > 12(amine_secondary)
N[C@@H](Cc1ccc(O)cc1)C(=O)N[C@H](Cc2ccccc2)C(O)=O,9.99,22:0:12,carboxylic_acid:amine_primary:amine_secondary,L-Tyrosyl-D-phenylalanine,22:0:12,carboxylic_acid:amine_primary:amine_secondary,22(carboxylic_acid) > 0(amine_primary) > 12(amine_secondary)
N[C@@H](Cc1ccc(O)cc1)C(=O)N[C@H](Cc2ccccc2)C(O)=O,7.66,22:0:12,carboxylic_acid:amine_primary:amine_secondary,L-Tyrosyl-D-phenylalanine,22:0:12,carboxylic_acid:amine_primary:amine_secondary,22(carboxylic_acid) > 0(amine_primary) > 12(amine_secondary)
N[C@@H](Cc1ccc(O)cc1)C(=O)N[C@H](Cc2ccccc2)C(O)=O,2.86,22:0:12,carboxylic_acid:amine_primary:amine_secondary,L-Tyrosyl-D-phenylalanine,22:0:12,carboxylic_acid:amine_primary:amine_secondary,22(carboxylic_acid) > 0(amine_primary) > 12(amine_secondary)
N[C@@H](Cc1ccc(O)cc1)C(=O)N[C@@H](Cc2ccc(O)cc2)C(O)=O,10.47,23:0:12:7,carboxylic_acid:amine_primary:amine_secondary:phenol,L-Tyrosyl-L-tyrosine,23:7:0:12,carboxylic_acid:phenol:amine_primary:amine_secondary,23(carboxylic_acid) > 7(phenol) > 0(amine_primary) > 12(amine_secondary)
N[C@@H](Cc1ccc(O)cc1)C(=O)N[C@@H](Cc2ccc(O)cc2)C(O)=O,9.68,23:0:12:7,carboxylic_acid:amine_primary:amine_secondary:phenol,L-Tyrosyl-L-tyrosine,23:7:0:12,carboxylic_acid:phenol:amine_primary:amine_secondary,23(carboxylic_acid) > 7(phenol) > 0(amine_primary) > 12(amine_secondary)
N[C@@H](Cc1ccc(O)cc1)C(=O)N[C@@H](Cc2ccc(O)cc2)C(O)=O,7.33,23:0:12:7,carboxylic_acid:amine_primary:amine_secondary:phenol,L-Tyrosyl-L-tyrosine,23:7:0:12,carboxylic_acid:phenol:amine_primary:amine_secondary,23(carboxylic_acid) > 7(phenol) > 0(amine_primary) > 12(amine_secondary)
N[C@@H](Cc1ccc(O)cc1)C(=O)N[C@@H](Cc2ccc(O)cc2)C(O)=O,3.21,23:0:12:7,carboxylic_acid:amine_primary:amine_secondary:phenol,L-Tyrosyl-L-tyrosine,23:7:0:12,carboxylic_acid:phenol:amine_primary:amine_secondary,23(carboxylic_acid) > 7(phenol) > 0(amine_primary) > 12(amine_secondary)
N[C@@H](Cc1ccc(O)cc1)C(=O)N[C@H](Cc2ccc(O)cc2)C(O)=O,10.54,23:0:12:7,carboxylic_acid:amine_primary:amine_secondary:phenol,L-Tyrosyl-D-tyrosine,23:7:0:12,carboxylic_acid:phenol:amine_primary:amine_secondary,23(carboxylic_acid) > 7(phenol) > 0(amine_primary) > 12(amine_secondary)
N[C@@H](Cc1ccc(O)cc1)C(=O)N[C@H](Cc2ccc(O)cc2)C(O)=O,9.73,23:0:12:7,carboxylic_acid:amine_primary:amine_secondary:phenol,L-Tyrosyl-D-tyrosine,23:7:0:12,carboxylic_acid:phenol:amine_primary:amine_secondary,23(carboxylic_acid) > 7(phenol) > 0(amine_primary) > 12(amine_secondary)
N[C@@H](Cc1ccc(O)cc1)C(=O)N[C@H](Cc2ccc(O)cc2)C(O)=O,7.74,23:0:12:7,carboxylic_acid:amine_primary:amine_secondary:phenol,L-Tyrosyl-D-tyrosine,23:7:0:12,carboxylic_acid:phenol:amine_primary:amine_secondary,23(carboxylic_acid) > 7(phenol) > 0(amine_primary) > 12(amine_secondary)
N[C@@H](Cc1ccc(O)cc1)C(=O)N[C@H](Cc2ccc(O)cc2)C(O)=O,2.93,23:0:12:7,carboxylic_acid:amine_primary:amine_secondary:phenol,L-Tyrosyl-D-tyrosine,23:7:0:12,carboxylic_acid:phenol:amine_primary:amine_secondary,23(carboxylic_acid) > 7(phenol) > 0(amine_primary) > 12(amine_secondary)
N[C@@H](Cc1ccc(O)cc1)C(=O)N[C@@H](CCC(O)=O)C(O)=O,10.09,17:20:0:12,carboxylic_acid:carboxylic_acid:amine_primary:amine_secondary,L-Tyrosyl-L-glutamic acid,17:20:0:12,carboxylic_acid:carboxylic_acid:amine_primary:amine_secondary,17(carboxylic_acid) > 20(carboxylic_acid) > 0(amine_primary) > 12(amine_secondary)
N[C@@H](Cc1ccc(O)cc1)C(=O)N[C@@H](CCC(O)=O)C(O)=O,7.69,17:20:0:12,carboxylic_acid:carboxylic_acid:amine_primary:amine_secondary,L-Tyrosyl-L-glutamic acid,17:20:0:12,carboxylic_acid:carboxylic_acid:amine_primary:amine_secondary,17(carboxylic_acid) > 20(carboxylic_acid) > 0(amine_primary) > 12(amine_secondary)
N[C@@H](Cc1ccc(O)cc1)C(=O)N[C@@H](CCC(O)=O)C(O)=O,4.48,17:20:0:12,carboxylic_acid:carboxylic_acid:amine_primary:amine_secondary,L-Tyrosyl-L-glutamic acid,17:20:0:12,carboxylic_acid:carboxylic_acid:amine_primary:amine_secondary,17(carboxylic_acid) > 20(carboxylic_acid) > 0(amine_primary) > 12(amine_secondary)
N[C@@H](Cc1ccc(O)cc1)C(=O)N[C@@H](CCC(O)=O)C(O)=O,3.17,17:20:0:12,carboxylic_acid:carboxylic_acid:amine_primary:amine_secondary,L-Tyrosyl-L-glutamic acid,17:20:0:12,carboxylic_acid:carboxylic_acid:amine_primary:amine_secondary,17(carboxylic_acid) > 20(carboxylic_acid) > 0(amine_primary) > 12(amine_secondary)
N[C@@H](Cc1ccc(O)cc1)C(=O)N[C@H](CCC(O)=O)C(O)=O,10.17,17:20:0:12,carboxylic_acid:carboxylic_acid:amine_primary:amine_secondary,L-Tyrosyl-D-glutamic acid,17:20:0:12,carboxylic_acid:carboxylic_acid:amine_primary:amine_secondary,17(carboxylic_acid) > 20(carboxylic_acid) > 0(amine_primary) > 12(amine_secondary)
N[C@@H](Cc1ccc(O)cc1)C(=O)N[C@H](CCC(O)=O)C(O)=O,7.85,17:20:0:12,carboxylic_acid:carboxylic_acid:amine_primary:amine_secondary,L-Tyrosyl-D-glutamic acid,17:20:0:12,carboxylic_acid:carboxylic_acid:amine_primary:amine_secondary,17(carboxylic_acid) > 20(carboxylic_acid) > 0(amine_primary) > 12(amine_secondary)
N[C@@H](Cc1ccc(O)cc1)C(=O)N[C@H](CCC(O)=O)C(O)=O,4.65,17:20:0:12,carboxylic_acid:carboxylic_acid:amine_primary:amine_secondary,L-Tyrosyl-D-glutamic acid,17:20:0:12,carboxylic_acid:carboxylic_acid:amine_primary:amine_secondary,17(carboxylic_acid) > 20(carboxylic_acid) > 0(amine_primary) > 12(amine_secondary)
N[C@@H](Cc1ccc(O)cc1)C(=O)N[C@H](CCC(O)=O)C(O)=O,2.85,17:20:0:12,carboxylic_acid:carboxylic_acid:amine_primary:amine_secondary,L-Tyrosyl-D-glutamic acid,17:20:0:12,carboxylic_acid:carboxylic_acid:amine_primary:amine_secondary,17(carboxylic_acid) > 20(carboxylic_acid) > 0(amine_primary) > 12(amine_secondary)
N[C@@H](Cc1ccc(O)cc1)C(=O)N[C@@H](CCCNC(N)=N)C(O)=O,9.82,22:0:19,carboxylic_acid:amine_primary:amine_primary,L-Tyrosyl-L-arginine,22:0:19,carboxylic_acid:amine_primary:amine_primary,22(carboxylic_acid) > 0(amine_primary) > 19(amine_primary)
N[C@@H](Cc1ccc(O)cc1)C(=O)N[C@@H](CCCNC(N)=N)C(O)=O,7.24,22:0:19,carboxylic_acid:amine_primary:amine_primary,L-Tyrosyl-L-arginine,22:0:19,carboxylic_acid:amine_primary:amine_primary,22(carboxylic_acid) > 0(amine_primary) > 19(amine_primary)
N[C@@H](Cc1ccc(O)cc1)C(=O)N[C@@H](CCCNC(N)=N)C(O)=O,3.09,22:0:19,carboxylic_acid:amine_primary:amine_primary,L-Tyrosyl-L-arginine,22:0:19,carboxylic_acid:amine_primary:amine_primary,22(carboxylic_acid) > 0(amine_primary) > 19(amine_primary)
N[C@@H](Cc1ccc(O)cc1)C(=O)N[C@H](CCCNC(N)=N)C(O)=O,9.82,22:0:19,carboxylic_acid:amine_primary:amine_primary,L-Tyrosyl-D-arginine,22:0:19,carboxylic_acid:amine_primary:amine_primary,22(carboxylic_acid) > 0(amine_primary) > 19(amine_primary)
N[C@@H](Cc1ccc(O)cc1)C(=O)N[C@H](CCCNC(N)=N)C(O)=O,7.62,22:0:19,carboxylic_acid:amine_primary:amine_primary,L-Tyrosyl-D-arginine,22:0:19,carboxylic_acid:amine_primary:amine_primary,22(carboxylic_acid) > 0(amine_primary) > 19(amine_primary)
N[C@@H](Cc1ccc(O)cc1)C(=O)N[C@H](CCCNC(N)=N)C(O)=O,2.81,22:0:19,carboxylic_acid:amine_primary:amine_primary,L-Tyrosyl-D-arginine,22:0:19,carboxylic_acid:amine_primary:amine_primary,22(carboxylic_acid) > 0(amine_primary) > 19(amine_primary)
N[C@@H](Cc1ccc(O)cc1)C(=O)N2CCC[C@H]2C(O)=O,9.91,0:7:18,amine_primary:phenol:carboxylic_acid,L-Tyrosyl-L-proline,18:7:0,carboxylic_acid:phenol:amine_primary,18(carboxylic_acid) > 7(phenol) > 0(amine_primary)
N[C@@H](Cc1ccc(O)cc1)C(=O)N2CCC[C@H]2C(O)=O,7.81,0:7:18,amine_primary:phenol:carboxylic_acid,L-Tyrosyl-L-proline,18:7:0,carboxylic_acid:phenol:amine_primary,18(carboxylic_acid) > 7(phenol) > 0(amine_primary)
N[C@@H](Cc1ccc(O)cc1)C(=O)N2CCC[C@H]2C(O)=O,3.19,0:7:18,amine_primary:phenol:carboxylic_acid,L-Tyrosyl-L-proline,18:7:0,carboxylic_acid:phenol:amine_primary,18(carboxylic_acid) > 7(phenol) > 0(amine_primary)
NCCCC[C@H](NC(=O)[C@@H](N)Cc1ccc(O)cc1)C(O)=O,11.01,20:0:10:6,carboxylic_acid:amine_primary:amine_primary:amine_secondary,L-Tyrosyl-L-lysine,20:0:10:6,carboxylic_acid:amine_primary:amine_primary:amine_secondary,20(carboxylic_acid) > 0(amine_primary) > 10(amine_primary) > 6(amine_secondary)
NCCCC[C@H](NC(=O)[C@@H](N)Cc1ccc(O)cc1)C(O)=O,9.72,20:0:10:6,carboxylic_acid:amine_primary:amine_primary:amine_secondary,L-Tyrosyl-L-lysine,20:0:10:6,carboxylic_acid:amine_primary:amine_primary:amine_secondary,20(carboxylic_acid) > 0(amine_primary) > 10(amine_primary) > 6(amine_secondary)
NCCCC[C@H](NC(=O)[C@@H](N)Cc1ccc(O)cc1)C(O)=O,7.33,20:0:10:6,carboxylic_acid:amine_primary:amine_primary:amine_secondary,L-Tyrosyl-L-lysine,20:0:10:6,carboxylic_acid:amine_primary:amine_primary:amine_secondary,20(carboxylic_acid) > 0(amine_primary) > 10(amine_primary) > 6(amine_secondary)
NCCCC[C@H](NC(=O)[C@@H](N)Cc1ccc(O)cc1)C(O)=O,3.34,20:0:10:6,carboxylic_acid:amine_primary:amine_primary:amine_secondary,L-Tyrosyl-L-lysine,20:0:10:6,carboxylic_acid:amine_primary:amine_primary:amine_secondary,20(carboxylic_acid) > 0(amine_primary) > 10(amine_primary) > 6(amine_secondary)
NCCCC[C@H](N)C(=O)N[C@@H](Cc1ccc(O)cc1)C(O)=O,11.06,20:0:6:9,carboxylic_acid:amine_primary:amine_primary:amine_secondary,L-Lysyl-L-tyrosine,20:0:6:9,carboxylic_acid:amine_primary:amine_primary:amine_secondary,20(carboxylic_acid) > 0(amine_primary) > 6(amine_primary) > 9(amine_secondary)
NCCCC[C@H](N)C(=O)N[C@@H](Cc1ccc(O)cc1)C(O)=O,9.79,20:0:6:9,carboxylic_acid:amine_primary:amine_primary:amine_secondary,L-Lysyl-L-tyrosine,20:0:6:9,carboxylic_acid:amine_primary:amine_primary:amine_secondary,20(carboxylic_acid) > 0(amine_primary) > 6(amine_primary) > 9(amine_secondary)
NCCCC[C@H](N)C(=O)N[C@@H](Cc1ccc(O)cc1)C(O)=O,7.47,20:0:6:9,carboxylic_acid:amine_primary:amine_primary:amine_secondary,L-Lysyl-L-tyrosine,20:0:6:9,carboxylic_acid:amine_primary:amine_primary:amine_secondary,20(carboxylic_acid) > 0(amine_primary) > 6(amine_primary) > 9(amine_secondary)
NCCCC[C@H](N)C(=O)N[C@@H](Cc1ccc(O)cc1)C(O)=O,3.02,20:0:6:9,carboxylic_acid:amine_primary:amine_primary:amine_secondary,L-Lysyl-L-tyrosine,20:0:6:9,carboxylic_acid:amine_primary:amine_primary:amine_secondary,20(carboxylic_acid) > 0(amine_primary) > 6(amine_primary) > 9(amine_secondary)
COC(=O)C(Cc1ccccc1)NC(=O)C(N)CC(O)=O,7.38,19:16,carboxylic_acid:amine_primary,L-1-Aspartyl-L-3-phenylalanine methylester (Aspartame),19:16,carboxylic_acid:amine_primary,19(carboxylic_acid) > 16(amine_primary)
COC(=O)C(Cc1ccccc1)NC(=O)C(N)CC(O)=O,2.98,19:16,carboxylic_acid:amine_primary,L-1-Aspartyl-L-3-phenylalanine methylester (Aspartame),19:16,carboxylic_acid:amine_primary,19(carboxylic_acid) > 16(amine_primary)
N[C@@H](CO)C(=O)N[C@@H](CCC(O)=O)C(O)=O,7.42,11:14:0,carboxylic_acid:carboxylic_acid:amine_primary,L-Seryl-L-glutamic acid,11:14:0,carboxylic_acid:carboxylic_acid:amine_primary,11(carboxylic_acid) > 14(carboxylic_acid) > 0(amine_primary)
N[C@@H](CO)C(=O)N[C@@H](CCC(O)=O)C(O)=O,4.34,11:14:0,carboxylic_acid:carboxylic_acid:amine_primary,L-Seryl-L-glutamic acid,11:14:0,carboxylic_acid:carboxylic_acid:amine_primary,11(carboxylic_acid) > 14(carboxylic_acid) > 0(amine_primary)
N[C@@H](CO)C(=O)N[C@@H](CCC(O)=O)C(O)=O,2.94,11:14:0,carboxylic_acid:carboxylic_acid:amine_primary,L-Seryl-L-glutamic acid,11:14:0,carboxylic_acid:carboxylic_acid:amine_primary,11(carboxylic_acid) > 14(carboxylic_acid) > 0(amine_primary)
NCCCC[C@H](NC(=O)[C@@H](N)CO)C(O)=O,10.49,14:0:10,carboxylic_acid:amine_primary:amine_primary,L-Seryl-L-lysine,14:0:10,carboxylic_acid:amine_primary:amine_primary,14(carboxylic_acid) > 0(amine_primary) > 10(amine_primary)
NCCCC[C@H](NC(=O)[C@@H](N)CO)C(O)=O,7.16,14:0:10,carboxylic_acid:amine_primary:amine_primary,L-Seryl-L-lysine,14:0:10,carboxylic_acid:amine_primary:amine_primary,14(carboxylic_acid) > 0(amine_primary) > 10(amine_primary)
NCCCC[C@H](NC(=O)[C@@H](N)CO)C(O)=O,2.92,14:0:10,carboxylic_acid:amine_primary:amine_primary,L-Seryl-L-lysine,14:0:10,carboxylic_acid:amine_primary:amine_primary,14(carboxylic_acid) > 0(amine_primary) > 10(amine_primary)
C[C@H](NC(=O)[C@@H](N)CCCCN)C(O)=O,10.59,13:6:11,carboxylic_acid:amine_primary:amine_primary,L-Lysyl-L-alanine,13:6:11,carboxylic_acid:amine_primary:amine_primary,13(carboxylic_acid) > 6(amine_primary) > 11(amine_primary)
C[C@H](NC(=O)[C@@H](N)CCCCN)C(O)=O,7.51,13:6:11,carboxylic_acid:amine_primary:amine_primary,L-Lysyl-L-alanine,13:6:11,carboxylic_acid:amine_primary:amine_primary,13(carboxylic_acid) > 6(amine_primary) > 11(amine_primary)
C[C@H](NC(=O)[C@@H](N)CCCCN)C(O)=O,3.11,13:6:11,carboxylic_acid:amine_primary:amine_primary,L-Lysyl-L-alanine,13:6:11,carboxylic_acid:amine_primary:amine_primary,13(carboxylic_acid) > 6(amine_primary) > 11(amine_primary)
C[C@@H](NC(=O)[C@@H](N)CCCCN)C(O)=O,10.52,13:6:11,carboxylic_acid:amine_primary:amine_primary,L-Lysyl-D-alanine,13:6:11,carboxylic_acid:amine_primary:amine_primary,13(carboxylic_acid) > 6(amine_primary) > 11(amine_primary)
C[C@@H](NC(=O)[C@@H](N)CCCCN)C(O)=O,7.63,13:6:11,carboxylic_acid:amine_primary:amine_primary,L-Lysyl-D-alanine,13:6:11,carboxylic_acid:amine_primary:amine_primary,13(carboxylic_acid) > 6(amine_primary) > 11(amine_primary)
C[C@@H](NC(=O)[C@@H](N)CCCCN)C(O)=O,2.89,13:6:11,carboxylic_acid:amine_primary:amine_primary,L-Lysyl-D-alanine,13:6:11,carboxylic_acid:amine_primary:amine_primary,13(carboxylic_acid) > 6(amine_primary) > 11(amine_primary)