SMILES,pKa,Dissociable_Atoms,Functional_Group,Name
OC(=O)CCC(O)=O,5.08,0:6,carboxylic_acid:carboxylic_acid,Butanedioic acid (Succinic acid)
OC(=O)CCC(O)=O,5.12,0:6,carboxylic_acid:carboxylic_acid,Butanedioic acid (Succinic acid)
OC(=O)CCC(O)=O,5.14,0:6,carboxylic_acid:carboxylic_acid,Butanedioic acid (Succinic acid)
OC(=O)CCC(O)=O,5.3,0:6,carboxylic_acid:carboxylic_acid,Butanedioic acid (Succinic acid)
OC(=O)CCC(O)=O,5.11,0:6,carboxylic_acid:carboxylic_acid,Butanedioic acid (Succinic acid)
OC(=O)CCC(O)=O,5.15,0:6,carboxylic_acid:carboxylic_acid,Butanedioic acid (Succinic acid)
OC(=O)CCC(O)=O,5.44,0:6,carboxylic_acid:carboxylic_acid,Butanedioic acid (Succinic acid)
OC(=O)CCC(O)=O,5.21,0:6,carboxylic_acid:carboxylic_acid,Butanedioic acid (Succinic acid)
OC(=O)CCC(O)=O,5.33,0:6,carboxylic_acid:carboxylic_acid,Butanedioic acid (Succinic acid)
OC(=O)CCC(O)=O,5.35,0:6,carboxylic_acid:carboxylic_acid,Butanedioic acid (Succinic acid)
OC(=O)CCC(O)=O,5.4,0:6,carboxylic_acid:carboxylic_acid,Butanedioic acid (Succinic acid)
OC(=O)CCC(O)=O,5.49,0:6,carboxylic_acid:carboxylic_acid,Butanedioic acid (Succinic acid)
OC(=O)CCC(O)=O,5.649,0:6,carboxylic_acid:carboxylic_acid,Butanedioic acid (Succinic acid)
OC(=O)CCC(O)=O,5.636,0:6,carboxylic_acid:carboxylic_acid,Butanedioic acid (Succinic acid)
OC(=O)CCC(O)=O,5.654,0:6,carboxylic_acid:carboxylic_acid,Butanedioic acid (Succinic acid)
OC(=O)CCC(O)=O,3.99,0:6,carboxylic_acid:carboxylic_acid,Butanedioic acid (Succinic acid)
OC(=O)CCC(O)=O,4.05,0:6,carboxylic_acid:carboxylic_acid,Butanedioic acid (Succinic acid)
OC(=O)CCC(O)=O,3.94,0:6,carboxylic_acid:carboxylic_acid,Butanedioic acid (Succinic acid)
OC(=O)CCC(O)=O,4.03,0:6,carboxylic_acid:carboxylic_acid,Butanedioic acid (Succinic acid)
OC(=O)CCC(O)=O,4.1,0:6,carboxylic_acid:carboxylic_acid,Butanedioic acid (Succinic acid)
OC(=O)CCC(O)=O,3.95,0:6,carboxylic_acid:carboxylic_acid,Butanedioic acid (Succinic acid)
OC(=O)CCC(O)=O,4.23,0:6,carboxylic_acid:carboxylic_acid,Butanedioic acid (Succinic acid)
OC(=O)CCC(O)=O,4.07,0:6,carboxylic_acid:carboxylic_acid,Butanedioic acid (Succinic acid)
OC(=O)CCC(O)=O,4.09,0:6,carboxylic_acid:carboxylic_acid,Butanedioic acid (Succinic acid)
OC(=O)CCC(O)=O,4.15,0:6,carboxylic_acid:carboxylic_acid,Butanedioic acid (Succinic acid)
OC(=O)CCC(O)=O,4.22,0:6,carboxylic_acid:carboxylic_acid,Butanedioic acid (Succinic acid)
OC(=O)CCC(O)=O,4.32,0:6,carboxylic_acid:carboxylic_acid,Butanedioic acid (Succinic acid)
OC(=O)CCC(O)=O,4.26,0:6,carboxylic_acid:carboxylic_acid,Butanedioic acid (Succinic acid)
OC(=O)CCC(O)=O,4.245,0:6,carboxylic_acid:carboxylic_acid,Butanedioic acid (Succinic acid)
OC(=O)CCC(O)=O,4.207,0:6,carboxylic_acid:carboxylic_acid,Butanedioic acid (Succinic acid)
OC(=O)CCC(O)=O,4.188,0:6,carboxylic_acid:carboxylic_acid,Butanedioic acid (Succinic acid)
CC(CC(O)=O)C(O)=O,5.35,4:7,carboxylic_acid:carboxylic_acid,"DL-Propane-1,2-dicarboxylic acid (Methylsuccinic acid)"
CC(CC(O)=O)C(O)=O,5.13,4:7,carboxylic_acid:carboxylic_acid,"DL-Propane-1,2-dicarboxylic acid (Methylsuccinic acid)"
CC(CC(O)=O)C(O)=O,5.79,4:7,carboxylic_acid:carboxylic_acid,"DL-Propane-1,2-dicarboxylic acid (Methylsuccinic acid)"
CC(CC(O)=O)C(O)=O,3.88,4:7,carboxylic_acid:carboxylic_acid,"DL-Propane-1,2-dicarboxylic acid (Methylsuccinic acid)"
CC(CC(O)=O)C(O)=O,3.86,4:7,carboxylic_acid:carboxylic_acid,"DL-Propane-1,2-dicarboxylic acid (Methylsuccinic acid)"
CC(CC(O)=O)C(O)=O,4.1,4:7,carboxylic_acid:carboxylic_acid,"DL-Propane-1,2-dicarboxylic acid (Methylsuccinic acid)"
CC(C)(CC(O)=O)C(O)=O,5.86,5:8,carboxylic_acid:carboxylic_acid,"2-Methylpropane-1,2-dicarboxylic acid (2,2-Dimethylsuccinic acid)"
CC(C)(CC(O)=O)C(O)=O,5.81,5:8,carboxylic_acid:carboxylic_acid,"2-Methylpropane-1,2-dicarboxylic acid (2,2-Dimethylsuccinic acid)"
CC(C)(CC(O)=O)C(O)=O,3.84,5:8,carboxylic_acid:carboxylic_acid,"2-Methylpropane-1,2-dicarboxylic acid (2,2-Dimethylsuccinic acid)"
CC(C)(CC(O)=O)C(O)=O,3.83,5:8,carboxylic_acid:carboxylic_acid,"2-Methylpropane-1,2-dicarboxylic acid (2,2-Dimethylsuccinic acid)"
CC(C(C)C(O)=O)C(O)=O,4.85,5:8,carboxylic_acid:carboxylic_acid,"meso-Butane-2,3-dicarboxylic acid (meso-2,3-Dimethylsuccinic acid)"
CC(C(C)C(O)=O)C(O)=O,5.3,5:8,carboxylic_acid:carboxylic_acid,"meso-Butane-2,3-dicarboxylic acid (meso-2,3-Dimethylsuccinic acid)"
CC(C(C)C(O)=O)C(O)=O,3.5,5:8,carboxylic_acid:carboxylic_acid,"meso-Butane-2,3-dicarboxylic acid (meso-2,3-Dimethylsuccinic acid)"
CC(C(C)C(O)=O)C(O)=O,3.67,5:8,carboxylic_acid:carboxylic_acid,"meso-Butane-2,3-dicarboxylic acid (meso-2,3-Dimethylsuccinic acid)"
CC(C)(C(O)=O)C(C)(C)C(O)=O,7.35,4:10,carboxylic_acid:carboxylic_acid,"2,2,3,3-Tetramethylbutane-2,3-dicarboxylic acid (Tetramethylsuccinic acid)"
CC(C)(C(O)=O)C(C)(C)C(O)=O,3.53,4:10,carboxylic_acid:carboxylic_acid,"2,2,3,3-Tetramethylbutane-2,3-dicarboxylic acid (Tetramethylsuccinic acid)"
CCC(CC)(C(O)=O)C(CC)(CC)C(O)=O,8.06,6:14,carboxylic_acid:carboxylic_acid,"2,2,3,3-Tetraethylbutane-2,3-dicarboxylic acid (Tetraethylsuccinic acid)"
CCC(CC)(C(O)=O)C(CC)(CC)C(O)=O,3.39,6:14,carboxylic_acid:carboxylic_acid,"2,2,3,3-Tetraethylbutane-2,3-dicarboxylic acid (Tetraethylsuccinic acid)"
OC(=O)\C=C/C(O)=O,5.84,0:6,carboxylic_acid:carboxylic_acid,cis-Butenedioic acid (Maleic acid)
OC(=O)\C=C/C(O)=O,6.01,0:6,carboxylic_acid:carboxylic_acid,cis-Butenedioic acid (Maleic acid)
OC(=O)\C=C/C(O)=O,5.82,0:6,carboxylic_acid:carboxylic_acid,cis-Butenedioic acid (Maleic acid)
OC(=O)\C=C/C(O)=O,6.02,0:6,carboxylic_acid:carboxylic_acid,cis-Butenedioic acid (Maleic acid)
OC(=O)\C=C/C(O)=O,5.61,0:6,carboxylic_acid:carboxylic_acid,cis-Butenedioic acid (Maleic acid)
OC(=O)\C=C/C(O)=O,5.6,0:6,carboxylic_acid:carboxylic_acid,cis-Butenedioic acid (Maleic acid)
OC(=O)\C=C/C(O)=O,5.51,0:6,carboxylic_acid:carboxylic_acid,cis-Butenedioic acid (Maleic acid)
OC(=O)\C=C/C(O)=O,5.57,0:6,carboxylic_acid:carboxylic_acid,cis-Butenedioic acid (Maleic acid)
OC(=O)\C=C/C(O)=O,5.59,0:6,carboxylic_acid:carboxylic_acid,cis-Butenedioic acid (Maleic acid)
OC(=O)\C=C/C(O)=O,5.69,0:6,carboxylic_acid:carboxylic_acid,cis-Butenedioic acid (Maleic acid)
OC(=O)\C=C/C(O)=O,6.27,0:6,carboxylic_acid:carboxylic_acid,cis-Butenedioic acid (Maleic acid)
OC(=O)\C=C/C(O)=O,1.75,0:6,carboxylic_acid:carboxylic_acid,cis-Butenedioic acid (Maleic acid)
OC(=O)\C=C/C(O)=O,1.76,0:6,carboxylic_acid:carboxylic_acid,cis-Butenedioic acid (Maleic acid)
OC(=O)\C=C/C(O)=O,1.64,0:6,carboxylic_acid:carboxylic_acid,cis-Butenedioic acid (Maleic acid)
OC(=O)\C=C/C(O)=O,1.65,0:6,carboxylic_acid:carboxylic_acid,cis-Butenedioic acid (Maleic acid)
OC(=O)\C=C/C(O)=O,1.67,0:6,carboxylic_acid:carboxylic_acid,cis-Butenedioic acid (Maleic acid)
OC(=O)\C=C/C(O)=O,1.78,0:6,carboxylic_acid:carboxylic_acid,cis-Butenedioic acid (Maleic acid)
OC(=O)\C=C/C(O)=O,1.92,0:6,carboxylic_acid:carboxylic_acid,cis-Butenedioic acid (Maleic acid)
CC(=C/C(O)=O)/C(O)=O,5.6,4:7,carboxylic_acid:carboxylic_acid,"cis-Propene-1,2-dicarboxylic acid (Citraconic acid)"
CC(=C/C(O)=O)/C(O)=O,5.46,4:7,carboxylic_acid:carboxylic_acid,"cis-Propene-1,2-dicarboxylic acid (Citraconic acid)"
CC(=C/C(O)=O)/C(O)=O,5.73,4:7,carboxylic_acid:carboxylic_acid,"cis-Propene-1,2-dicarboxylic acid (Citraconic acid)"
CC(=C/C(O)=O)/C(O)=O,6.16,4:7,carboxylic_acid:carboxylic_acid,"cis-Propene-1,2-dicarboxylic acid (Citraconic acid)"
CC(=C/C(O)=O)/C(O)=O,2.2,4:7,carboxylic_acid:carboxylic_acid,"cis-Propene-1,2-dicarboxylic acid (Citraconic acid)"
CC(=C/C(O)=O)/C(O)=O,2.23,4:7,carboxylic_acid:carboxylic_acid,"cis-Propene-1,2-dicarboxylic acid (Citraconic acid)"
CC(=C/C(O)=O)/C(O)=O,2.39,4:7,carboxylic_acid:carboxylic_acid,"cis-Propene-1,2-dicarboxylic acid (Citraconic acid)"
CC(=C/C(O)=O)/C(O)=O,2.29,4:7,carboxylic_acid:carboxylic_acid,"cis-Propene-1,2-dicarboxylic acid (Citraconic acid)"
OC(=O)/C=C/C(O)=O,4.09,0:6,carboxylic_acid:carboxylic_acid,trans-Butenedioic acid (Fumaric acid)
OC(=O)/C=C/C(O)=O,3.92,0:6,carboxylic_acid:carboxylic_acid,trans-Butenedioic acid (Fumaric acid)
OC(=O)/C=C/C(O)=O,3.9,0:6,carboxylic_acid:carboxylic_acid,trans-Butenedioic acid (Fumaric acid)
OC(=O)/C=C/C(O)=O,3.95,0:6,carboxylic_acid:carboxylic_acid,trans-Butenedioic acid (Fumaric acid)
OC(=O)/C=C/C(O)=O,4.01,0:6,carboxylic_acid:carboxylic_acid,trans-Butenedioic acid (Fumaric acid)
OC(=O)/C=C/C(O)=O,4.17,0:6,carboxylic_acid:carboxylic_acid,trans-Butenedioic acid (Fumaric acid)
OC(=O)/C=C/C(O)=O,4.48,0:6,carboxylic_acid:carboxylic_acid,trans-Butenedioic acid (Fumaric acid)
OC(=O)/C=C/C(O)=O,2.84,0:6,carboxylic_acid:carboxylic_acid,trans-Butenedioic acid (Fumaric acid)
OC(=O)/C=C/C(O)=O,2.77,0:6,carboxylic_acid:carboxylic_acid,trans-Butenedioic acid (Fumaric acid)
OC(=O)/C=C/C(O)=O,2.79,0:6,carboxylic_acid:carboxylic_acid,trans-Butenedioic acid (Fumaric acid)
OC(=O)/C=C/C(O)=O,2.87,0:6,carboxylic_acid:carboxylic_acid,trans-Butenedioic acid (Fumaric acid)
OC(=O)/C=C/C(O)=O,2.92,0:6,carboxylic_acid:carboxylic_acid,trans-Butenedioic acid (Fumaric acid)
OC(=O)/C=C/C(O)=O,3.03,0:6,carboxylic_acid:carboxylic_acid,trans-Butenedioic acid (Fumaric acid)
OC(=O)/C=C/C(O)=O,3.08,0:6,carboxylic_acid:carboxylic_acid,trans-Butenedioic acid (Fumaric acid)
OC(=O)/C=C/C(O)=O,3.02,0:6,carboxylic_acid:carboxylic_acid,trans-Butenedioic acid (Fumaric acid)
CC(=C\C(O)=O)/C(O)=O,4.82,4,carboxylic_acid,"trans-Propene-1,2-dicarboxylic acid (Mesaconic acid)"
OC(=O)CC(=C)C(O)=O,5.14,0:7,carboxylic_acid:carboxylic_acid,"Propene-2,3-dicarboxylic acid (Itaconic acid)"
OC(=O)CC(=C)C(O)=O,5.25,0:7,carboxylic_acid:carboxylic_acid,"Propene-2,3-dicarboxylic acid (Itaconic acid)"
OC(=O)CC(=C)C(O)=O,4.99,0:7,carboxylic_acid:carboxylic_acid,"Propene-2,3-dicarboxylic acid (Itaconic acid)"
OC(=O)CC(=C)C(O)=O,5.58,0:7,carboxylic_acid:carboxylic_acid,"Propene-2,3-dicarboxylic acid (Itaconic acid)"
OC(=O)CC(=C)C(O)=O,3.66,0:7,carboxylic_acid:carboxylic_acid,"Propene-2,3-dicarboxylic acid (Itaconic acid)"
OC(=O)CC(=C)C(O)=O,3.63,0:7,carboxylic_acid:carboxylic_acid,"Propene-2,3-dicarboxylic acid (Itaconic acid)"
OC(=O)CC(=C)C(O)=O,3.85,0:7,carboxylic_acid:carboxylic_acid,"Propene-2,3-dicarboxylic acid (Itaconic acid)"
OC(=O)C#CC(O)=O,2.34,0:6,carboxylic_acid:carboxylic_acid,Butynedioic acid (Acetylenedicarboxylic acid)
OC(=O)C#CC(O)=O,0.7,0:6,carboxylic_acid:carboxylic_acid,Butynedioic acid (Acetylenedicarboxylic acid)
OC(=O)CCCC(O)=O,5.06,0:7,carboxylic_acid:carboxylic_acid,Pentanedioic acid (Glutaric acid)
OC(=O)CCCC(O)=O,4.87,0:7,carboxylic_acid:carboxylic_acid,Pentanedioic acid (Glutaric acid)
OC(=O)CCCC(O)=O,4.84,0:7,carboxylic_acid:carboxylic_acid,Pentanedioic acid (Glutaric acid)
OC(=O)CCCC(O)=O,4.94,0:7,carboxylic_acid:carboxylic_acid,Pentanedioic acid (Glutaric acid)
OC(=O)CCCC(O)=O,4.95,0:7,carboxylic_acid:carboxylic_acid,Pentanedioic acid (Glutaric acid)
OC(=O)CCCC(O)=O,4.98,0:7,carboxylic_acid:carboxylic_acid,Pentanedioic acid (Glutaric acid)
OC(=O)CCCC(O)=O,5.13,0:7,carboxylic_acid:carboxylic_acid,Pentanedioic acid (Glutaric acid)
OC(=O)CCCC(O)=O,5.15,0:7,carboxylic_acid:carboxylic_acid,Pentanedioic acid (Glutaric acid)
OC(=O)CCCC(O)=O,5.422,0:7,carboxylic_acid:carboxylic_acid,Pentanedioic acid (Glutaric acid)
OC(=O)CCCC(O)=O,4.19,0:7,carboxylic_acid:carboxylic_acid,Pentanedioic acid (Glutaric acid)
OC(=O)CCCC(O)=O,4.1,0:7,carboxylic_acid:carboxylic_acid,Pentanedioic acid (Glutaric acid)
OC(=O)CCCC(O)=O,4.09,0:7,carboxylic_acid:carboxylic_acid,Pentanedioic acid (Glutaric acid)
OC(=O)CCCC(O)=O,4.11,0:7,carboxylic_acid:carboxylic_acid,Pentanedioic acid (Glutaric acid)
OC(=O)CCCC(O)=O,4.2,0:7,carboxylic_acid:carboxylic_acid,Pentanedioic acid (Glutaric acid)
OC(=O)CCCC(O)=O,4.25,0:7,carboxylic_acid:carboxylic_acid,Pentanedioic acid (Glutaric acid)
OC(=O)CCCC(O)=O,4.36,0:7,carboxylic_acid:carboxylic_acid,Pentanedioic acid (Glutaric acid)
OC(=O)CCCC(O)=O,4.43,0:7,carboxylic_acid:carboxylic_acid,Pentanedioic acid (Glutaric acid)
OC(=O)CCCC(O)=O,4.345,0:7,carboxylic_acid:carboxylic_acid,Pentanedioic acid (Glutaric acid)
CC(CC(O)=O)CC(O)=O,6.23,4:8,carboxylic_acid:carboxylic_acid,"2-Methylpropane-1,3-dicarboxylic acid (3-Methylglutaric acid)"
CC(CC(O)=O)CC(O)=O,4.25,4:8,carboxylic_acid:carboxylic_acid,"2-Methylpropane-1,3-dicarboxylic acid (3-Methylglutaric acid)"
CCC(CC(O)=O)CC(O)=O,6.33,5:9,carboxylic_acid:carboxylic_acid,"2-Ethylpropane-1,3-dicarboxylic acid (3-Ethylglutaric acid)"
CCC(CC(O)=O)CC(O)=O,4.29,5:9,carboxylic_acid:carboxylic_acid,"2-Ethylpropane-1,3-dicarboxylic acid (3-Ethylglutaric acid)"
CCCC(CC(O)=O)CC(O)=O,6.39,6:10,carboxylic_acid:carboxylic_acid,"2-Propylpropane-1,3-dicarboxylic acid (3-Propylglutaric acid)"
CCCC(CC(O)=O)CC(O)=O,4.31,6:10,carboxylic_acid:carboxylic_acid,"2-Propylpropane-1,3-dicarboxylic acid (3-Propylglutaric acid)"
CC(C)(CC(O)=O)CC(O)=O,6.29,5:9,carboxylic_acid:carboxylic_acid,"2,2-Dimethylpropane-1,3-dicarboxylic acid (3,3-Dimethylglutaric acid)"
CC(C)(CC(O)=O)CC(O)=O,3.7,5:9,carboxylic_acid:carboxylic_acid,"2,2-Dimethylpropane-1,3-dicarboxylic acid (3,3-Dimethylglutaric acid)"
CCC(C)(CC(O)=O)CC(O)=O,6.7,6:10,carboxylic_acid:carboxylic_acid,"2-Ethyl-2-methylpropane-1,3-dicarboxylic acid (3-Ethyl-3-methylglutaric acid)"
CCC(C)(CC(O)=O)CC(O)=O,3.62,6:10,carboxylic_acid:carboxylic_acid,"2-Ethyl-2-methylpropane-1,3-dicarboxylic acid (3-Ethyl-3-methylglutaric acid)"
CCC(CC)(CC(O)=O)CC(O)=O,7.13,7:11,carboxylic_acid:carboxylic_acid,"2,2-Diethylpropane-1,3-dicarboxylic acid (3,3-Diethylglutaric acid)"
CCC(CC)(CC(O)=O)CC(O)=O,3.62,7:11,carboxylic_acid:carboxylic_acid,"2,2-Diethylpropane-1,3-dicarboxylic acid (3,3-Diethylglutaric acid)"
CCCC(CCC)(CC(O)=O)CC(O)=O,7.31,9:13,carboxylic_acid:carboxylic_acid,"2,2-Dipropylpropane-1,3-dicarboxylic acid (3,3-Dipropylglutaric acid)"
CCCC(CCC)(CC(O)=O)CC(O)=O,3.69,9:13,carboxylic_acid:carboxylic_acid,"2,2-Dipropylpropane-1,3-dicarboxylic acid (3,3-Dipropylglutaric acid)"
OC(=O)CC1(CCCC1)CC(O)=O,6.59,0:11,carboxylic_acid:carboxylic_acid,"Cyclopentane-1,1-diacetic acid"
OC(=O)CC1(CCCC1)CC(O)=O,3.78,0:11,carboxylic_acid:carboxylic_acid,"Cyclopentane-1,1-diacetic acid"
OC(=O)CC1(CCCCC1)CC(O)=O,7.48,0:12,carboxylic_acid:carboxylic_acid,"Cyclohexane-1,1-diacetic acid"
OC(=O)CC1(CCCCC1)CC(O)=O,3.0,0:12,carboxylic_acid:carboxylic_acid,"Cyclohexane-1,1-diacetic acid"
OC(=O)C/C=C/C(O)=O,5.077,0:7,carboxylic_acid:carboxylic_acid,trans-Pentenedioic acid (trans-Glutaconic acid)
OC(=O)C/C=C/C(O)=O,3.769,0:7,carboxylic_acid:carboxylic_acid,trans-Pentenedioic acid (trans-Glutaconic acid)
OC(=O)CCCCC(O)=O,5.04,0:8,carboxylic_acid:carboxylic_acid,Hexanedioic acid (Adipic acid)
OC(=O)CCCCC(O)=O,4.9,0:8,carboxylic_acid:carboxylic_acid,Hexanedioic acid (Adipic acid)
OC(=O)CCCCC(O)=O,4.87,0:8,carboxylic_acid:carboxylic_acid,Hexanedioic acid (Adipic acid)
OC(=O)CCCCC(O)=O,4.92,0:8,carboxylic_acid:carboxylic_acid,Hexanedioic acid (Adipic acid)
OC(=O)CCCCC(O)=O,4.95,0:8,carboxylic_acid:carboxylic_acid,Hexanedioic acid (Adipic acid)
OC(=O)CCCCC(O)=O,4.98,0:8,carboxylic_acid:carboxylic_acid,Hexanedioic acid (Adipic acid)
OC(=O)CCCCC(O)=O,5.05,0:8,carboxylic_acid:carboxylic_acid,Hexanedioic acid (Adipic acid)
OC(=O)CCCCC(O)=O,5.15,0:8,carboxylic_acid:carboxylic_acid,Hexanedioic acid (Adipic acid)
OC(=O)CCCCC(O)=O,5.23,0:8,carboxylic_acid:carboxylic_acid,Hexanedioic acid (Adipic acid)
OC(=O)CCCCC(O)=O,5.36,0:8,carboxylic_acid:carboxylic_acid,Hexanedioic acid (Adipic acid)
OC(=O)CCCCC(O)=O,5.42,0:8,carboxylic_acid:carboxylic_acid,Hexanedioic acid (Adipic acid)
OC(=O)CCCCC(O)=O,4.26,0:8,carboxylic_acid:carboxylic_acid,Hexanedioic acid (Adipic acid)
OC(=O)CCCCC(O)=O,4.22,0:8,carboxylic_acid:carboxylic_acid,Hexanedioic acid (Adipic acid)
OC(=O)CCCCC(O)=O,4.19,0:8,carboxylic_acid:carboxylic_acid,Hexanedioic acid (Adipic acid)
OC(=O)CCCCC(O)=O,4.21,0:8,carboxylic_acid:carboxylic_acid,Hexanedioic acid (Adipic acid)
OC(=O)CCCCC(O)=O,4.3,0:8,carboxylic_acid:carboxylic_acid,Hexanedioic acid (Adipic acid)
OC(=O)CCCCC(O)=O,4.31,0:8,carboxylic_acid:carboxylic_acid,Hexanedioic acid (Adipic acid)
OC(=O)CCCCC(O)=O,4.34,0:8,carboxylic_acid:carboxylic_acid,Hexanedioic acid (Adipic acid)
OC(=O)CCCCC(O)=O,4.4,0:8,carboxylic_acid:carboxylic_acid,Hexanedioic acid (Adipic acid)
OC(=O)CCCCC(O)=O,4.48,0:8,carboxylic_acid:carboxylic_acid,Hexanedioic acid (Adipic acid)
OC(=O)CCCCC(O)=O,4.52,0:8,carboxylic_acid:carboxylic_acid,Hexanedioic acid (Adipic acid)
OC(=O)CCCCC(O)=O,4.76,0:8,carboxylic_acid:carboxylic_acid,Hexanedioic acid (Adipic acid)
OC(=O)CCCCC(O)=O,4.424,0:8,carboxylic_acid:carboxylic_acid,Hexanedioic acid (Adipic acid)
OC(=O)CCCCCC(O)=O,5.08,0:9,carboxylic_acid:carboxylic_acid,Heptanedioic acid (Pimelic acid)
OC(=O)CCCCCC(O)=O,4.95,0:9,carboxylic_acid:carboxylic_acid,Heptanedioic acid (Pimelic acid)
OC(=O)CCCCCC(O)=O,4.91,0:9,carboxylic_acid:carboxylic_acid,Heptanedioic acid (Pimelic acid)
OC(=O)CCCCCC(O)=O,4.97,0:9,carboxylic_acid:carboxylic_acid,Heptanedioic acid (Pimelic acid)
OC(=O)CCCCCC(O)=O,5.02,0:9,carboxylic_acid:carboxylic_acid,Heptanedioic acid (Pimelic acid)
OC(=O)CCCCCC(O)=O,5.09,0:9,carboxylic_acid:carboxylic_acid,Heptanedioic acid (Pimelic acid)
OC(=O)CCCCCC(O)=O,5.18,0:9,carboxylic_acid:carboxylic_acid,Heptanedioic acid (Pimelic acid)
OC(=O)CCCCCC(O)=O,5.25,0:9,carboxylic_acid:carboxylic_acid,Heptanedioic acid (Pimelic acid)
OC(=O)CCCCCC(O)=O,5.434,0:9,carboxylic_acid:carboxylic_acid,Heptanedioic acid (Pimelic acid)
OC(=O)CCCCCC(O)=O,4.31,0:9,carboxylic_acid:carboxylic_acid,Heptanedioic acid (Pimelic acid)
OC(=O)CCCCCC(O)=O,4.26,0:9,carboxylic_acid:carboxylic_acid,Heptanedioic acid (Pimelic acid)
OC(=O)CCCCCC(O)=O,4.28,0:9,carboxylic_acid:carboxylic_acid,Heptanedioic acid (Pimelic acid)
OC(=O)CCCCCC(O)=O,4.37,0:9,carboxylic_acid:carboxylic_acid,Heptanedioic acid (Pimelic acid)
OC(=O)CCCCCC(O)=O,4.42,0:9,carboxylic_acid:carboxylic_acid,Heptanedioic acid (Pimelic acid)
OC(=O)CCCCCC(O)=O,4.55,0:9,carboxylic_acid:carboxylic_acid,Heptanedioic acid (Pimelic acid)
OC(=O)CCCCCC(O)=O,4.62,0:9,carboxylic_acid:carboxylic_acid,Heptanedioic acid (Pimelic acid)
OC(=O)CCCCCC(O)=O,4.493,0:9,carboxylic_acid:carboxylic_acid,Heptanedioic acid (Pimelic acid)
OC(=O)CCCCCCC(O)=O,5.08,0:10,carboxylic_acid:carboxylic_acid,Octanedioic acid (Suberic acid)
OC(=O)CCCCCCC(O)=O,4.94,0:10,carboxylic_acid:carboxylic_acid,Octanedioic acid (Suberic acid)
OC(=O)CCCCCCC(O)=O,4.96,0:10,carboxylic_acid:carboxylic_acid,Octanedioic acid (Suberic acid)
OC(=O)CCCCCCC(O)=O,5.04,0:10,carboxylic_acid:carboxylic_acid,Octanedioic acid (Suberic acid)
OC(=O)CCCCCCC(O)=O,5.09,0:10,carboxylic_acid:carboxylic_acid,Octanedioic acid (Suberic acid)
OC(=O)CCCCCCC(O)=O,5.22,0:10,carboxylic_acid:carboxylic_acid,Octanedioic acid (Suberic acid)
OC(=O)CCCCCCC(O)=O,5.29,0:10,carboxylic_acid:carboxylic_acid,Octanedioic acid (Suberic acid)
OC(=O)CCCCCCC(O)=O,5.41,0:10,carboxylic_acid:carboxylic_acid,Octanedioic acid (Suberic acid)
OC(=O)CCCCCCC(O)=O,4.33,0:10,carboxylic_acid:carboxylic_acid,Octanedioic acid (Suberic acid)
OC(=O)CCCCCCC(O)=O,4.28,0:10,carboxylic_acid:carboxylic_acid,Octanedioic acid (Suberic acid)
OC(=O)CCCCCCC(O)=O,4.29,0:10,carboxylic_acid:carboxylic_acid,Octanedioic acid (Suberic acid)
OC(=O)CCCCCCC(O)=O,4.31,0:10,carboxylic_acid:carboxylic_acid,Octanedioic acid (Suberic acid)
OC(=O)CCCCCCC(O)=O,4.4,0:10,carboxylic_acid:carboxylic_acid,Octanedioic acid (Suberic acid)
OC(=O)CCCCCCC(O)=O,4.47,0:10,carboxylic_acid:carboxylic_acid,Octanedioic acid (Suberic acid)
OC(=O)CCCCCCC(O)=O,4.57,0:10,carboxylic_acid:carboxylic_acid,Octanedioic acid (Suberic acid)
OC(=O)CCCCCCC(O)=O,4.65,0:10,carboxylic_acid:carboxylic_acid,Octanedioic acid (Suberic acid)
OC(=O)CCCCCCC(O)=O,4.52,0:10,carboxylic_acid:carboxylic_acid,Octanedioic acid (Suberic acid)
OC(=O)CCCCCCCC(O)=O,5.09,0:11,carboxylic_acid:carboxylic_acid,Nonanedioic acid (Azelaic acid)
OC(=O)CCCCCCCC(O)=O,4.97,0:11,carboxylic_acid:carboxylic_acid,Nonanedioic acid (Azelaic acid)
OC(=O)CCCCCCCC(O)=O,4.96,0:11,carboxylic_acid:carboxylic_acid,Nonanedioic acid (Azelaic acid)
OC(=O)CCCCCCCC(O)=O,4.99,0:11,carboxylic_acid:carboxylic_acid,Nonanedioic acid (Azelaic acid)