SMILES,pKa,Dissociable_Atoms,Functional_Group,Name,Dissociable_Atoms_Ordered,Functional_Group_Ordered,Dissociation_Order
OC(=O)CN(CCN(CC(O)=O)CC(O)=O)CC(O)=O,9.86,7:11,tertiary_amine:tertiary_amine,Ethylenedinitrilotetraacetic acid (EDTA),7:11,tertiary_amine:tertiary_amine,7(tertiary_amine) > 11(tertiary_amine)
OC(=O)CN(CCN(CC(O)=O)CC(O)=O)CC(O)=O,10.2,7:11,tertiary_amine:tertiary_amine,Ethylenedinitrilotetraacetic acid (EDTA),7:11,tertiary_amine:tertiary_amine,7(tertiary_amine) > 11(tertiary_amine)
OC(=O)CN(CCN(CC(O)=O)CC(O)=O)CC(O)=O,9.05,7:11,tertiary_amine:tertiary_amine,Ethylenedinitrilotetraacetic acid (EDTA),7:11,tertiary_amine:tertiary_amine,7(tertiary_amine) > 11(tertiary_amine)
OC(=O)CN(CCN(CC(O)=O)CC(O)=O)CC(O)=O,10.948,7:11,tertiary_amine:tertiary_amine,Ethylenedinitrilotetraacetic acid (EDTA),7:11,tertiary_amine:tertiary_amine,7(tertiary_amine) > 11(tertiary_amine)
OC(=O)CN(CCN(CC(O)=O)CC(O)=O)CC(O)=O,6.13,7:11,tertiary_amine:tertiary_amine,Ethylenedinitrilotetraacetic acid (EDTA),7:11,tertiary_amine:tertiary_amine,7(tertiary_amine) > 11(tertiary_amine)
OC(=O)CN(CCN(CC(O)=O)CC(O)=O)CC(O)=O,6.03,7:11,tertiary_amine:tertiary_amine,Ethylenedinitrilotetraacetic acid (EDTA),7:11,tertiary_amine:tertiary_amine,7(tertiary_amine) > 11(tertiary_amine)
OC(=O)CN(CCN(CC(O)=O)CC(O)=O)CC(O)=O,6.1,7:11,tertiary_amine:tertiary_amine,Ethylenedinitrilotetraacetic acid (EDTA),7:11,tertiary_amine:tertiary_amine,7(tertiary_amine) > 11(tertiary_amine)
OC(=O)CN(CCN(CC(O)=O)CC(O)=O)CC(O)=O,6.19,7:11,tertiary_amine:tertiary_amine,Ethylenedinitrilotetraacetic acid (EDTA),7:11,tertiary_amine:tertiary_amine,7(tertiary_amine) > 11(tertiary_amine)
OC(=O)CN(CCN(CC(O)=O)CC(O)=O)CC(O)=O,7.02,7:11,tertiary_amine:tertiary_amine,Ethylenedinitrilotetraacetic acid (EDTA),7:11,tertiary_amine:tertiary_amine,7(tertiary_amine) > 11(tertiary_amine)
OC(=O)CN(CCN(CC(O)=O)CC(O)=O)CC(O)=O,6.273,7:11,tertiary_amine:tertiary_amine,Ethylenedinitrilotetraacetic acid (EDTA),7:11,tertiary_amine:tertiary_amine,7(tertiary_amine) > 11(tertiary_amine)
OC(=O)CN(CCN(CC(O)=O)CC(O)=O)CC(O)=O,2.69,7:11,tertiary_amine:tertiary_amine,Ethylenedinitrilotetraacetic acid (EDTA),7:11,tertiary_amine:tertiary_amine,7(tertiary_amine) > 11(tertiary_amine)
OC(=O)CN(CCN(CC(O)=O)CC(O)=O)CC(O)=O,2.79,7:11,tertiary_amine:tertiary_amine,Ethylenedinitrilotetraacetic acid (EDTA),7:11,tertiary_amine:tertiary_amine,7(tertiary_amine) > 11(tertiary_amine)
OC(=O)CN(CCN(CC(O)=O)CC(O)=O)CC(O)=O,2.52,7:11,tertiary_amine:tertiary_amine,Ethylenedinitrilotetraacetic acid (EDTA),7:11,tertiary_amine:tertiary_amine,7(tertiary_amine) > 11(tertiary_amine)
OC(=O)CN(CCN(CC(O)=O)CC(O)=O)CC(O)=O,2.54,7:11,tertiary_amine:tertiary_amine,Ethylenedinitrilotetraacetic acid (EDTA),7:11,tertiary_amine:tertiary_amine,7(tertiary_amine) > 11(tertiary_amine)
OC(=O)CN(CCN(CC(O)=O)CC(O)=O)CC(O)=O,2.0,7:11,tertiary_amine:tertiary_amine,Ethylenedinitrilotetraacetic acid (EDTA),7:11,tertiary_amine:tertiary_amine,7(tertiary_amine) > 11(tertiary_amine)
OC(=O)CN(CCN(CC(O)=O)CC(O)=O)CC(O)=O,2.05,7:11,tertiary_amine:tertiary_amine,Ethylenedinitrilotetraacetic acid (EDTA),7:11,tertiary_amine:tertiary_amine,7(tertiary_amine) > 11(tertiary_amine)
OC(=O)CN(CCN(CC(O)=O)CC(O)=O)CC(O)=O,2.02,7:11,tertiary_amine:tertiary_amine,Ethylenedinitrilotetraacetic acid (EDTA),7:11,tertiary_amine:tertiary_amine,7(tertiary_amine) > 11(tertiary_amine)
OC(=O)CN(CCN(CC(O)=O)CC(O)=O)CC(O)=O,2.2,7:11,tertiary_amine:tertiary_amine,Ethylenedinitrilotetraacetic acid (EDTA),7:11,tertiary_amine:tertiary_amine,7(tertiary_amine) > 11(tertiary_amine)
OC(=O)CN(CCN(CC(O)=O)CC(O)=O)CC(O)=O,1.5,7:11,tertiary_amine:tertiary_amine,Ethylenedinitrilotetraacetic acid (EDTA),7:11,tertiary_amine:tertiary_amine,7(tertiary_amine) > 11(tertiary_amine)
OC(=O)CN(CCN(CC(O)=O)CC(O)=O)CC(O)=O,1.6,7:11,tertiary_amine:tertiary_amine,Ethylenedinitrilotetraacetic acid (EDTA),7:11,tertiary_amine:tertiary_amine,7(tertiary_amine) > 11(tertiary_amine)
OC(=O)CN(CCN(CC(O)=O)CC(O)=O)CC(O)=O,1.4,7:11,tertiary_amine:tertiary_amine,Ethylenedinitrilotetraacetic acid (EDTA),7:11,tertiary_amine:tertiary_amine,7(tertiary_amine) > 11(tertiary_amine)
OC(=O)CN(CCN(CC(O)=O)CC(O)=O)CC(O)=O,1.7,7:11,tertiary_amine:tertiary_amine,Ethylenedinitrilotetraacetic acid (EDTA),7:11,tertiary_amine:tertiary_amine,7(tertiary_amine) > 11(tertiary_amine)
OC(=O)CN(CCN(CC(O)=O)CC(O)=O)CC(O)=O,0.0,7:11,tertiary_amine:tertiary_amine,Ethylenedinitrilotetraacetic acid (EDTA),7:11,tertiary_amine:tertiary_amine,7(tertiary_amine) > 11(tertiary_amine)
OC(=O)CN(CCN(CC(O)=O)CC(O)=O)CC(O)=O,0.4,7:11,tertiary_amine:tertiary_amine,Ethylenedinitrilotetraacetic acid (EDTA),7:11,tertiary_amine:tertiary_amine,7(tertiary_amine) > 11(tertiary_amine)
CC(CN(CC(O)=O)CC(O)=O)N(CC(O)=O)CC(O)=O,10.85,6:10:15:19,carboxylic_acid:carboxylic_acid:carboxylic_acid:carboxylic_acid,DL-(Methylethylene)dinitrilotetraacetic acid (PDTA),6:10:15:19,carboxylic_acid:carboxylic_acid:carboxylic_acid:carboxylic_acid,6(carboxylic_acid) > 10(carboxylic_acid) > 15(carboxylic_acid) > 19(carboxylic_acid)
CC(CN(CC(O)=O)CC(O)=O)N(CC(O)=O)CC(O)=O,11.01,6:10:15:19,carboxylic_acid:carboxylic_acid:carboxylic_acid:carboxylic_acid,DL-(Methylethylene)dinitrilotetraacetic acid (PDTA),6:10:15:19,carboxylic_acid:carboxylic_acid:carboxylic_acid:carboxylic_acid,6(carboxylic_acid) > 10(carboxylic_acid) > 15(carboxylic_acid) > 19(carboxylic_acid)
CC(CN(CC(O)=O)CC(O)=O)N(CC(O)=O)CC(O)=O,11.17,6:10:15:19,carboxylic_acid:carboxylic_acid:carboxylic_acid:carboxylic_acid,DL-(Methylethylene)dinitrilotetraacetic acid (PDTA),6:10:15:19,carboxylic_acid:carboxylic_acid:carboxylic_acid:carboxylic_acid,6(carboxylic_acid) > 10(carboxylic_acid) > 15(carboxylic_acid) > 19(carboxylic_acid)
CC(CN(CC(O)=O)CC(O)=O)N(CC(O)=O)CC(O)=O,6.24,6:10:15:19,carboxylic_acid:carboxylic_acid:carboxylic_acid:carboxylic_acid,DL-(Methylethylene)dinitrilotetraacetic acid (PDTA),6:10:15:19,carboxylic_acid:carboxylic_acid:carboxylic_acid:carboxylic_acid,6(carboxylic_acid) > 10(carboxylic_acid) > 15(carboxylic_acid) > 19(carboxylic_acid)
CC(CN(CC(O)=O)CC(O)=O)N(CC(O)=O)CC(O)=O,6.2,6:10:15:19,carboxylic_acid:carboxylic_acid:carboxylic_acid:carboxylic_acid,DL-(Methylethylene)dinitrilotetraacetic acid (PDTA),6:10:15:19,carboxylic_acid:carboxylic_acid:carboxylic_acid:carboxylic_acid,6(carboxylic_acid) > 10(carboxylic_acid) > 15(carboxylic_acid) > 19(carboxylic_acid)
CC(CN(CC(O)=O)CC(O)=O)N(CC(O)=O)CC(O)=O,6.4,6:10:15:19,carboxylic_acid:carboxylic_acid:carboxylic_acid:carboxylic_acid,DL-(Methylethylene)dinitrilotetraacetic acid (PDTA),6:10:15:19,carboxylic_acid:carboxylic_acid:carboxylic_acid:carboxylic_acid,6(carboxylic_acid) > 10(carboxylic_acid) > 15(carboxylic_acid) > 19(carboxylic_acid)
CC(CN(CC(O)=O)CC(O)=O)N(CC(O)=O)CC(O)=O,2.79,6:10:15:19,carboxylic_acid:carboxylic_acid:carboxylic_acid:carboxylic_acid,DL-(Methylethylene)dinitrilotetraacetic acid (PDTA),6:10:15:19,carboxylic_acid:carboxylic_acid:carboxylic_acid:carboxylic_acid,6(carboxylic_acid) > 10(carboxylic_acid) > 15(carboxylic_acid) > 19(carboxylic_acid)
CC(CN(CC(O)=O)CC(O)=O)N(CC(O)=O)CC(O)=O,1.8,6:10:15:19,carboxylic_acid:carboxylic_acid:carboxylic_acid:carboxylic_acid,DL-(Methylethylene)dinitrilotetraacetic acid (PDTA),6:10:15:19,carboxylic_acid:carboxylic_acid:carboxylic_acid:carboxylic_acid,6(carboxylic_acid) > 10(carboxylic_acid) > 15(carboxylic_acid) > 19(carboxylic_acid)
NCC(=O)NC(CO[P](O)(O)=O)C(O)=O,8.42,13:0:4,carboxylic_acid:amine_primary:amine_secondary,Glycyl-DL-phosphoserine (Glycyl-DL-serine dihydrogenphosphate),13:0:4,carboxylic_acid:amine_primary:amine_secondary,13(carboxylic_acid) > 0(amine_primary) > 4(amine_secondary)
NCC(=O)NC(CO[P](O)(O)=O)C(O)=O,6.03,13:0:4,carboxylic_acid:amine_primary:amine_secondary,Glycyl-DL-phosphoserine (Glycyl-DL-serine dihydrogenphosphate),13:0:4,carboxylic_acid:amine_primary:amine_secondary,13(carboxylic_acid) > 0(amine_primary) > 4(amine_secondary)
NCC(=O)NC(CO[P](O)(O)=O)C(O)=O,2.91,13:0:4,carboxylic_acid:amine_primary:amine_secondary,Glycyl-DL-phosphoserine (Glycyl-DL-serine dihydrogenphosphate),13:0:4,carboxylic_acid:amine_primary:amine_secondary,13(carboxylic_acid) > 0(amine_primary) > 4(amine_secondary)
NCC(=O)N[C@@H](Cc1ccc(O)cc1)C(O)=O,9.98,15:0:4,carboxylic_acid:amine_primary:amine_secondary,Glycyl-L-tyrosine,15:0:4,carboxylic_acid:amine_primary:amine_secondary,15(carboxylic_acid) > 0(amine_primary) > 4(amine_secondary)
NCC(=O)N[C@@H](Cc1ccc(O)cc1)C(O)=O,8.14,15:0:4,carboxylic_acid:amine_primary:amine_secondary,Glycyl-L-tyrosine,15:0:4,carboxylic_acid:amine_primary:amine_secondary,15(carboxylic_acid) > 0(amine_primary) > 4(amine_secondary)
NCC(=O)N[C@@H](Cc1ccc(O)cc1)C(O)=O,3.02,15:0:4,carboxylic_acid:amine_primary:amine_secondary,Glycyl-L-tyrosine,15:0:4,carboxylic_acid:amine_primary:amine_secondary,15(carboxylic_acid) > 0(amine_primary) > 4(amine_secondary)
NCC(=O)N[C@@H](CO)C(O)=O,8.13,9:0,carboxylic_acid:amine_primary,Glycyl-L-serine,9:0,carboxylic_acid:amine_primary,9(carboxylic_acid) > 0(amine_primary)
NCC(=O)N[C@@H](CO)C(O)=O,8.7,9:0,carboxylic_acid:amine_primary,Glycyl-L-serine,9:0,carboxylic_acid:amine_primary,9(carboxylic_acid) > 0(amine_primary)
NCC(=O)N[C@@H](CO)C(O)=O,8.277,9:0,carboxylic_acid:amine_primary,Glycyl-L-serine,9:0,carboxylic_acid:amine_primary,9(carboxylic_acid) > 0(amine_primary)
NCC(=O)N[C@@H](CO)C(O)=O,7.908,9:0,carboxylic_acid:amine_primary,Glycyl-L-serine,9:0,carboxylic_acid:amine_primary,9(carboxylic_acid) > 0(amine_primary)
NCC(=O)N[C@@H](CO)C(O)=O,2.97,9:0,carboxylic_acid:amine_primary,Glycyl-L-serine,9:0,carboxylic_acid:amine_primary,9(carboxylic_acid) > 0(amine_primary)
NCC(=O)N[C@@H](CO)C(O)=O,2.997,9:0,carboxylic_acid:amine_primary,Glycyl-L-serine,9:0,carboxylic_acid:amine_primary,9(carboxylic_acid) > 0(amine_primary)
NCC(=O)N[C@@H](CO)C(O)=O,2.981,9:0,carboxylic_acid:amine_primary,Glycyl-L-serine,9:0,carboxylic_acid:amine_primary,9(carboxylic_acid) > 0(amine_primary)
NCC(=O)N[C@@H](CO)C(O)=O,2.98,9:0,carboxylic_acid:amine_primary,Glycyl-L-serine,9:0,carboxylic_acid:amine_primary,9(carboxylic_acid) > 0(amine_primary)
NCC(=O)N1C[C@H](O)C[C@H]1C(O)=O,8.37,11:0,carboxylic_acid:amine_primary,Glycyl-L-hydroxyproline,11:0,carboxylic_acid:amine_primary,11(carboxylic_acid) > 0(amine_primary)
NCC(=O)N1C[C@H](O)C[C@H]1C(O)=O,2.8,11:0,carboxylic_acid:amine_primary,Glycyl-L-hydroxyproline,11:0,carboxylic_acid:amine_primary,11(carboxylic_acid) > 0(amine_primary)
NCC(=O)N[C@@H](CC(N)=O)C(O)=O,8.12,11:0,carboxylic_acid:amine_primary,Glycyl-L-asparagine,11:0,carboxylic_acid:amine_primary,11(carboxylic_acid) > 0(amine_primary)
NCC(=O)N[C@@H](CC(N)=O)C(O)=O,8.685,11:0,carboxylic_acid:amine_primary,Glycyl-L-asparagine,11:0,carboxylic_acid:amine_primary,11(carboxylic_acid) > 0(amine_primary)
NCC(=O)N[C@@H](CC(N)=O)C(O)=O,8.268,11:0,carboxylic_acid:amine_primary,Glycyl-L-asparagine,11:0,carboxylic_acid:amine_primary,11(carboxylic_acid) > 0(amine_primary)
NCC(=O)N[C@@H](CC(N)=O)C(O)=O,7.894,11:0,carboxylic_acid:amine_primary,Glycyl-L-asparagine,11:0,carboxylic_acid:amine_primary,11(carboxylic_acid) > 0(amine_primary)
NCC(=O)N[C@@H](CC(N)=O)C(O)=O,3.12,11:0,carboxylic_acid:amine_primary,Glycyl-L-asparagine,11:0,carboxylic_acid:amine_primary,11(carboxylic_acid) > 0(amine_primary)
NCC(=O)N[C@@H](CC(N)=O)C(O)=O,2.958,11:0,carboxylic_acid:amine_primary,Glycyl-L-asparagine,11:0,carboxylic_acid:amine_primary,11(carboxylic_acid) > 0(amine_primary)
NCC(=O)N[C@@H](CC(N)=O)C(O)=O,2.942,11:0,carboxylic_acid:amine_primary,Glycyl-L-asparagine,11:0,carboxylic_acid:amine_primary,11(carboxylic_acid) > 0(amine_primary)
NCC(=O)N[C@@H](CC(N)=O)C(O)=O,2.947,11:0,carboxylic_acid:amine_primary,Glycyl-L-asparagine,11:0,carboxylic_acid:amine_primary,11(carboxylic_acid) > 0(amine_primary)
NCC(=O)N[C@@H](CS)C(O)=O,9.48,9:0:4,carboxylic_acid:amine_primary:amine_secondary,Glycyl-L-cysteine,9:0:4,carboxylic_acid:amine_primary:amine_secondary,9(carboxylic_acid) > 0(amine_primary) > 4(amine_secondary)
NCC(=O)N[C@@H](CS)C(O)=O,8.04,9:0:4,carboxylic_acid:amine_primary:amine_secondary,Glycyl-L-cysteine,9:0:4,carboxylic_acid:amine_primary:amine_secondary,9(carboxylic_acid) > 0(amine_primary) > 4(amine_secondary)
NCC(=O)N[C@@H](CS)C(O)=O,2.73,9:0:4,carboxylic_acid:amine_primary:amine_secondary,Glycyl-L-cysteine,9:0:4,carboxylic_acid:amine_primary:amine_secondary,9(carboxylic_acid) > 0(amine_primary) > 4(amine_secondary)
CSCC[C@H](NC(=O)CN)C(O)=O,8.12,11:9,carboxylic_acid:amine_primary,Glycyl-L-methionine,11:9,carboxylic_acid:amine_primary,11(carboxylic_acid) > 9(amine_primary)
CSCC[C@H](NC(=O)CN)C(O)=O,8.825,11:9,carboxylic_acid:amine_primary,Glycyl-L-methionine,11:9,carboxylic_acid:amine_primary,11(carboxylic_acid) > 9(amine_primary)
CSCC[C@H](NC(=O)CN)C(O)=O,8.408,11:9,carboxylic_acid:amine_primary,Glycyl-L-methionine,11:9,carboxylic_acid:amine_primary,11(carboxylic_acid) > 9(amine_primary)
CSCC[C@H](NC(=O)CN)C(O)=O,8.037,11:9,carboxylic_acid:amine_primary,Glycyl-L-methionine,11:9,carboxylic_acid:amine_primary,11(carboxylic_acid) > 9(amine_primary)
CSCC[C@H](NC(=O)CN)C(O)=O,3.02,11:9,carboxylic_acid:amine_primary,Glycyl-L-methionine,11:9,carboxylic_acid:amine_primary,11(carboxylic_acid) > 9(amine_primary)
NCCCC[C@H](NC(=O)CN)C(O)=O,10.46,12:0:10,carboxylic_acid:amine_primary:amine_primary,Glycyl-L-lysine,12:0:10,carboxylic_acid:amine_primary:amine_primary,12(carboxylic_acid) > 0(amine_primary) > 10(amine_primary)
NCCCC[C@H](NC(=O)CN)C(O)=O,10.0,12:0:10,carboxylic_acid:amine_primary:amine_primary,Glycyl-L-lysine,12:0:10,carboxylic_acid:amine_primary:amine_primary,12(carboxylic_acid) > 0(amine_primary) > 10(amine_primary)
NCCCC[C@H](NC(=O)CN)C(O)=O,8.02,12:0:10,carboxylic_acid:amine_primary:amine_primary,Glycyl-L-lysine,12:0:10,carboxylic_acid:amine_primary:amine_primary,12(carboxylic_acid) > 0(amine_primary) > 10(amine_primary)
NCCCC[C@H](NC(=O)CN)C(O)=O,7.8,12:0:10,carboxylic_acid:amine_primary:amine_primary,Glycyl-L-lysine,12:0:10,carboxylic_acid:amine_primary:amine_primary,12(carboxylic_acid) > 0(amine_primary) > 10(amine_primary)
NCCCC[C@H](NC(=O)CN)C(O)=O,2.8,12:0:10,carboxylic_acid:amine_primary:amine_primary,Glycyl-L-lysine,12:0:10,carboxylic_acid:amine_primary:amine_primary,12(carboxylic_acid) > 0(amine_primary) > 10(amine_primary)
NCC(=O)N[C@@H](Cc1c[nH]cn1)C(O)=O,8.14,13:0:4,carboxylic_acid:amine_primary:amine_secondary,Glycyl-L-histidine,13:0:4,carboxylic_acid:amine_primary:amine_secondary,13(carboxylic_acid) > 0(amine_primary) > 4(amine_secondary)
NCC(=O)N[C@@H](Cc1c[nH]cn1)C(O)=O,7.85,13:0:4,carboxylic_acid:amine_primary:amine_secondary,Glycyl-L-histidine,13:0:4,carboxylic_acid:amine_primary:amine_secondary,13(carboxylic_acid) > 0(amine_primary) > 4(amine_secondary)
NCC(=O)N[C@@H](Cc1c[nH]cn1)C(O)=O,6.7,13:0:4,carboxylic_acid:amine_primary:amine_secondary,Glycyl-L-histidine,13:0:4,carboxylic_acid:amine_primary:amine_secondary,13(carboxylic_acid) > 0(amine_primary) > 4(amine_secondary)
NCC(=O)N[C@@H](Cc1c[nH]cn1)C(O)=O,6.49,13:0:4,carboxylic_acid:amine_primary:amine_secondary,Glycyl-L-histidine,13:0:4,carboxylic_acid:amine_primary:amine_secondary,13(carboxylic_acid) > 0(amine_primary) > 4(amine_secondary)
NCC(=O)N[C@@H](Cc1c[nH]cn1)C(O)=O,2.52,13:0:4,carboxylic_acid:amine_primary:amine_secondary,Glycyl-L-histidine,13:0:4,carboxylic_acid:amine_primary:amine_secondary,13(carboxylic_acid) > 0(amine_primary) > 4(amine_secondary)
NCC(=O)N[C@@H](Cc1c[nH]cn1)C(O)=O,2.54,13:0:4,carboxylic_acid:amine_primary:amine_secondary,Glycyl-L-histidine,13:0:4,carboxylic_acid:amine_primary:amine_secondary,13(carboxylic_acid) > 0(amine_primary) > 4(amine_secondary)
NCCC(=O)NCC(O)=O,9.4,8:0,carboxylic_acid:amine_primary,beta-Alanylglycine,8:0,carboxylic_acid:amine_primary,8(carboxylic_acid) > 0(amine_primary)
NCCC(=O)NCC(O)=O,3.2,8:0,carboxylic_acid:amine_primary,beta-Alanylglycine,8:0,carboxylic_acid:amine_primary,8(carboxylic_acid) > 0(amine_primary)
C[C@H](N)C(=O)NCC(O)=O,8.11,8:2,carboxylic_acid:amine_primary,L-Alanylglycine,8:2,carboxylic_acid:amine_primary,8(carboxylic_acid) > 2(amine_primary)
C[C@H](N)C(=O)NCC(O)=O,3.13,8:2,carboxylic_acid:amine_primary,L-Alanylglycine,8:2,carboxylic_acid:amine_primary,8(carboxylic_acid) > 2(amine_primary)
CC(C)[C@H](N)C(=O)NCC(O)=O,7.95,10:4,carboxylic_acid:amine_primary,L-Valylglycine,10:4,carboxylic_acid:amine_primary,10(carboxylic_acid) > 4(amine_primary)
CC(C)[C@H](N)C(=O)NCC(O)=O,3.1,10:4,carboxylic_acid:amine_primary,L-Valylglycine,10:4,carboxylic_acid:amine_primary,10(carboxylic_acid) > 4(amine_primary)
CC(C)C[C@H](N)C(=O)NCC(O)=O,8.0,11:5,carboxylic_acid:amine_primary,L-Leucylglycine,11:5,carboxylic_acid:amine_primary,11(carboxylic_acid) > 5(amine_primary)
CC(C)C[C@H](N)C(=O)NCC(O)=O,8.12,11:5,carboxylic_acid:amine_primary,L-Leucylglycine,11:5,carboxylic_acid:amine_primary,11(carboxylic_acid) > 5(amine_primary)
CC(C)C[C@H](N)C(=O)NCC(O)=O,3.11,11:5,carboxylic_acid:amine_primary,L-Leucylglycine,11:5,carboxylic_acid:amine_primary,11(carboxylic_acid) > 5(amine_primary)
CC(C)C[C@H](N)C(=O)NCC(O)=O,3.08,11:5,carboxylic_acid:amine_primary,L-Leucylglycine,11:5,carboxylic_acid:amine_primary,11(carboxylic_acid) > 5(amine_primary)
CC[C@H](C)[C@H](N)C(=O)NCC(O)=O,7.96,11:5,carboxylic_acid:amine_primary,L-Isoleucylglycine,11:5,carboxylic_acid:amine_primary,11(carboxylic_acid) > 5(amine_primary)
CC[C@H](C)[C@H](N)C(=O)NCC(O)=O,3.04,11:5,carboxylic_acid:amine_primary,L-Isoleucylglycine,11:5,carboxylic_acid:amine_primary,11(carboxylic_acid) > 5(amine_primary)
N[C@@H](Cc1ccccc1)C(=O)NCC(O)=O,7.48,14:0,carboxylic_acid:amine_primary,L-Phenylalanylglycine,14:0,carboxylic_acid:amine_primary,14(carboxylic_acid) > 0(amine_primary)
N[C@@H](Cc1ccccc1)C(=O)NCC(O)=O,3.07,14:0,carboxylic_acid:amine_primary,L-Phenylalanylglycine,14:0,carboxylic_acid:amine_primary,14(carboxylic_acid) > 0(amine_primary)
CNCC(=O)NCC(O)=O,8.44,8:1,carboxylic_acid:amine_secondary,Sarcosylglycine,8:1,carboxylic_acid:amine_secondary,8(carboxylic_acid) > 1(amine_secondary)
CNCC(=O)NCC(O)=O,3.0,8:1,carboxylic_acid:amine_secondary,Sarcosylglycine,8:1,carboxylic_acid:amine_secondary,8(carboxylic_acid) > 1(amine_secondary)
OC(=O)CNC(=O)[C@@H]1CCCN1,8.91,0:4,carboxylic_acid:amine_secondary,L-Prolylglycine,0:4,carboxylic_acid:amine_secondary,0(carboxylic_acid) > 4(amine_secondary)
OC(=O)CNC(=O)[C@@H]1CCCN1,9.03,0:4,carboxylic_acid:amine_secondary,L-Prolylglycine,0:4,carboxylic_acid:amine_secondary,0(carboxylic_acid) > 4(amine_secondary)
OC(=O)CNC(=O)[C@@H]1CCCN1,3.1,0:4,carboxylic_acid:amine_secondary,L-Prolylglycine,0:4,carboxylic_acid:amine_secondary,0(carboxylic_acid) > 4(amine_secondary)
OC(=O)CNC(=O)[C@@H]1CCCN1,2.93,0:4,carboxylic_acid:amine_secondary,L-Prolylglycine,0:4,carboxylic_acid:amine_secondary,0(carboxylic_acid) > 4(amine_secondary)
N[C@@H](CC(O)=O)C(=O)NCC(O)=O,8.03,4:11:0,carboxylic_acid:carboxylic_acid:amine_primary,L-Aspartylglycine,4:11:0,carboxylic_acid:carboxylic_acid:amine_primary,4(carboxylic_acid) > 11(carboxylic_acid) > 0(amine_primary)
N[C@@H](CC(O)=O)C(=O)NCC(O)=O,3.67,4:11:0,carboxylic_acid:carboxylic_acid:amine_primary,L-Aspartylglycine,4:11:0,carboxylic_acid:carboxylic_acid:amine_primary,4(carboxylic_acid) > 11(carboxylic_acid) > 0(amine_primary)
N[C@@H](CC(O)=O)C(=O)NCC(O)=O,2.82,4:11:0,carboxylic_acid:carboxylic_acid:amine_primary,L-Aspartylglycine,4:11:0,carboxylic_acid:carboxylic_acid:amine_primary,4(carboxylic_acid) > 11(carboxylic_acid) > 0(amine_primary)
N[C@@H](CCC(O)=O)C(=O)NCC(O)=O,8.04,5:12:0,carboxylic_acid:carboxylic_acid:amine_primary,L-Glutamylglycine,5:12:0,carboxylic_acid:carboxylic_acid:amine_primary,5(carboxylic_acid) > 12(carboxylic_acid) > 0(amine_primary)
N[C@@H](CCC(O)=O)C(=O)NCC(O)=O,7.87,5:12:0,carboxylic_acid:carboxylic_acid:amine_primary,L-Glutamylglycine,5:12:0,carboxylic_acid:carboxylic_acid:amine_primary,5(carboxylic_acid) > 12(carboxylic_acid) > 0(amine_primary)