SMILES,pKa,Dissociable_Atoms,Functional_Group,Name
c1ccc(nc1)c2nc(nc(n2)c3ccccn3)c4ccccn4,2.2,18:27,ring_nitrogen:heterocyclic_nitrogen,"2,4,6-Tri(2-pyridyl)-1,3,5-triazine"
C(CN(Cc1ccccn1)Cc2ccccn2)N(Cc3ccccn3)Cc4ccccn4,7.12,9:16:24:31,pyridine_nitrogen:pyridine_nitrogen:pyridine_nitrogen:pyridine_nitrogen,"Ethylenedinitrilotetrakis(methylene-2-pyridine) (N,N,N',N'-Tetra-2-picolylethylenediamine)(TPEN)"
C(CN(Cc1ccccn1)Cc2ccccn2)N(Cc3ccccn3)Cc4ccccn4,4.81,9:16:24:31,pyridine_nitrogen:pyridine_nitrogen:pyridine_nitrogen:pyridine_nitrogen,"Ethylenedinitrilotetrakis(methylene-2-pyridine) (N,N,N',N'-Tetra-2-picolylethylenediamine)(TPEN)"
C(CN(Cc1ccccn1)Cc2ccccn2)N(Cc3ccccn3)Cc4ccccn4,3.3,9:16:24:31,pyridine_nitrogen:pyridine_nitrogen:pyridine_nitrogen:pyridine_nitrogen,"Ethylenedinitrilotetrakis(methylene-2-pyridine) (N,N,N',N'-Tetra-2-picolylethylenediamine)(TPEN)"
C(CN(Cc1ccccn1)Cc2ccccn2)N(Cc3ccccn3)Cc4ccccn4,2.88,9:16:24:31,pyridine_nitrogen:pyridine_nitrogen:pyridine_nitrogen:pyridine_nitrogen,"Ethylenedinitrilotetrakis(methylene-2-pyridine) (N,N,N',N'-Tetra-2-picolylethylenediamine)(TPEN)"
Cc1ccncn1,2.38,7,heterocyclic_nitrogen,"4-Methyl-1,3-diazine (4-Methylpyrimidine)"
Nc1ncccn1,3.89,7,heterocyclic_nitrogen,"2-Amino-1,3-diazine (2-Aminopyrimidine)"
Cc1ccnc(N)n1,3.89,10,ring_nitrogen,"2-Amino-4-methyl-1,3-diazine"
Cc1cc(C)nc(N)n1,5.1,13,ring_nitrogen,"2-Amino-4,6-dimethyl-1,3-diazine"
NC1=NC(=O)NC=C1,4.57,5,amine_secondary,"4-Amino-2-oxo-1,3-diazine (Cytosine)"
NC1=NC(=O)NC=C1,4.43,5,amine_secondary,"4-Amino-2-oxo-1,3-diazine (Cytosine)"
NC1=NC(=O)NC=C1,4.79,5,amine_secondary,"4-Amino-2-oxo-1,3-diazine (Cytosine)"
NC1=NC(=O)NC=C1,4.58,5,amine_secondary,"4-Amino-2-oxo-1,3-diazine (Cytosine)"
NC1=NC(=O)NC=C1,4.42,5,amine_secondary,"4-Amino-2-oxo-1,3-diazine (Cytosine)"
NC1=NC(=O)N(C=C1)[C@@H]2O[C@H](CO)[C@@H](O)[C@H]2O,4.09,10,tertiary_amine,1-(beta-D-Ribofuranosyl)cytosine (Cytidine)
NC1=NC(=O)N(C=C1)[C@@H]2O[C@H](CO)[C@@H](O)[C@H]2O,3.92,10,tertiary_amine,1-(beta-D-Ribofuranosyl)cytosine (Cytidine)
NC1=NC(=O)N(C=C1)[C@@H]2O[C@H](CO)[C@@H](O)[C@H]2O,4.12,10,tertiary_amine,1-(beta-D-Ribofuranosyl)cytosine (Cytidine)
NC1=NC(=O)N(C=C1)[C@@H]2O[C@H](CO)[C@@H](O)[C@H]2O,4.14,10,tertiary_amine,1-(beta-D-Ribofuranosyl)cytosine (Cytidine)
NC1=NC(=O)N(C=C1)[C@@H]2O[C@H](CO)[C@@H](O)[C@H]2O,4.29,10,tertiary_amine,1-(beta-D-Ribofuranosyl)cytosine (Cytidine)
NC1=NC(=O)N(C=C1)[C@@H]2O[C@H](CO)[C@@H](O)[C@H]2O,4.08,10,tertiary_amine,1-(beta-D-Ribofuranosyl)cytosine (Cytidine)
NC1=NC(=O)N(C=C1)C2OC(CO[P](O)(=O)O[P](O)(O)=O)C(O)C2O,6.39,0:22:24,amine_primary:alcohol:alcohol,Cytidine-5'-(trihydrogendiphosphate) (CDP)
NC1=NC(=O)N(C=C1)C2OC(CO[P](O)(=O)O[P](O)(O)=O)C(O)C2O,6.43,0:22:24,amine_primary:alcohol:alcohol,Cytidine-5'-(trihydrogendiphosphate) (CDP)
NC1=NC(=O)N(C=C1)C2OC(CO[P](O)(=O)O[P](O)(O)=O)C(O)C2O,6.68,0:22:24,amine_primary:alcohol:alcohol,Cytidine-5'-(trihydrogendiphosphate) (CDP)
NC1=NC(=O)N(C=C1)C2OC(CO[P](O)(=O)O[P](O)(O)=O)C(O)C2O,6.38,0:22:24,amine_primary:alcohol:alcohol,Cytidine-5'-(trihydrogendiphosphate) (CDP)
NC1=NC(=O)N(C=C1)C2OC(CO[P](O)(=O)O[P](O)(O)=O)C(O)C2O,7.18,0:22:24,amine_primary:alcohol:alcohol,Cytidine-5'-(trihydrogendiphosphate) (CDP)
NC1=NC(=O)N(C=C1)C2OC(CO[P](O)(=O)O[P](O)(O)=O)C(O)C2O,4.46,0:22:24,amine_primary:alcohol:alcohol,Cytidine-5'-(trihydrogendiphosphate) (CDP)
NC1=NC(=O)N(C=C1)C2OC(CO[P](O)(=O)O[P](O)(O)=O)C(O)C2O,4.56,0:22:24,amine_primary:alcohol:alcohol,Cytidine-5'-(trihydrogendiphosphate) (CDP)
NC1=NC(=O)N(C=C1)C2OC(CO[P](O)(=O)O[P](O)(O)=O)C(O)C2O,1.0,0:22:24,amine_primary:alcohol:alcohol,Cytidine-5'-(trihydrogendiphosphate) (CDP)
NC1=NC(=O)N(C=C1)C2OC(CO[P](O)(=O)O[P](O)(=O)O[P](O)(O)=O)C(O)C2O,6.42,0:26,amine_primary:alcohol,Cytidine-5'-(tetrahydrogentriphosphate) (CTP)
NC1=NC(=O)N(C=C1)C2OC(CO[P](O)(=O)O[P](O)(=O)O[P](O)(O)=O)C(O)C2O,6.58,0:26,amine_primary:alcohol,Cytidine-5'-(tetrahydrogentriphosphate) (CTP)
NC1=NC(=O)N(C=C1)C2OC(CO[P](O)(=O)O[P](O)(=O)O[P](O)(O)=O)C(O)C2O,6.99,0:26,amine_primary:alcohol,Cytidine-5'-(tetrahydrogentriphosphate) (CTP)
NC1=NC(=O)N(C=C1)C2OC(CO[P](O)(=O)O[P](O)(=O)O[P](O)(O)=O)C(O)C2O,7.65,0:26,amine_primary:alcohol,Cytidine-5'-(tetrahydrogentriphosphate) (CTP)
NC1=NC(=O)N(C=C1)C2OC(CO[P](O)(=O)O[P](O)(=O)O[P](O)(O)=O)C(O)C2O,4.47,0:26,amine_primary:alcohol,Cytidine-5'-(tetrahydrogentriphosphate) (CTP)
O=C1NC=CC(=O)N1,9.28,2,amine_secondary,"2,4-Dioxo-1,3-diazine (Uracil)"
O=C1NC=CC(=O)N1,8.98,2,amine_secondary,"2,4-Dioxo-1,3-diazine (Uracil)"
O=C1NC=CC(=O)N1,9.74,2,amine_secondary,"2,4-Dioxo-1,3-diazine (Uracil)"
O=C1NC=CC(=O)N1,9.46,2,amine_secondary,"2,4-Dioxo-1,3-diazine (Uracil)"
O=C1NC=CC(=O)N1,9.07,2,amine_secondary,"2,4-Dioxo-1,3-diazine (Uracil)"
FC1=CNC(=O)NC1=O,7.85,3,amine_secondary,5-Fluorouracil (5-FU)
FC1=CNC(=O)NC1=O,7.86,3,amine_secondary,5-Fluorouracil (5-FU)
OC1C(O)C(OC1CO[P](O)(=O)O[P](O)(O)=O)N2C=CC(=O)NC2=O,6.38,22:0,amine_secondary:alcohol,Uridine-5'-(trihydrogendiphosphate) (UDP)
OC1C(O)C(OC1CO[P](O)(=O)O[P](O)(O)=O)N2C=CC(=O)NC2=O,6.68,22:0,amine_secondary:alcohol,Uridine-5'-(trihydrogendiphosphate) (UDP)
OC1C(O)C(OC1CO[P](O)(=O)O[P](O)(O)=O)N2C=CC(=O)NC2=O,7.16,22:0,amine_secondary:alcohol,Uridine-5'-(trihydrogendiphosphate) (UDP)
OC1C(O)C(OC1CO[P](O)(=O)O[P](O)(O)=O)N2C=CC(=O)NC2=O,1.3,22:0,amine_secondary:alcohol,Uridine-5'-(trihydrogendiphosphate) (UDP)
OC1C(O)C(OC1CO[P](O)(=O)O[P](O)(=O)O[P](O)(O)=O)N2C=CC(=O)NC2=O,6.34,26:0,amine_secondary:alcohol,Uridine-5'-(tetrahydrogentriphosphate) (UTP)
OC1C(O)C(OC1CO[P](O)(=O)O[P](O)(=O)O[P](O)(O)=O)N2C=CC(=O)NC2=O,6.9,26:0,amine_secondary:alcohol,Uridine-5'-(tetrahydrogentriphosphate) (UTP)
OC1C(O)C(OC1CO[P](O)(=O)O[P](O)(=O)O[P](O)(O)=O)N2C=CC(=O)NC2=O,7.58,26:0,amine_secondary:alcohol,Uridine-5'-(tetrahydrogentriphosphate) (UTP)
OC1C(O)C(OC1CO[P](O)(=O)O[P](O)(=O)O[P](O)(O)=O)N2C=CC(=O)NC2=O,1.9,26:0,amine_secondary:alcohol,Uridine-5'-(tetrahydrogentriphosphate) (UTP)
CC1=CNC(=O)NC1=O,9.71,3,amine_secondary,"5-Methyl-2,4-dioxo-1,3-diazine (Thymine)"
CC1=CNC(=O)NC1=O,10.18,3,amine_secondary,"5-Methyl-2,4-dioxo-1,3-diazine (Thymine)"
CC1=CNC(=O)NC1=O,9.9,3,amine_secondary,"5-Methyl-2,4-dioxo-1,3-diazine (Thymine)"
CC1=CNC(=O)NC1=O,9.52,3,amine_secondary,"5-Methyl-2,4-dioxo-1,3-diazine (Thymine)"
CC1=CN([C@H]2C[C@H](O)[C@@H](CO)O2)C(=O)NC1=O,9.55,5,tertiary_amine,1-(2-Deoxy-beta-D-ribofuranosyl)thymine (Thymidine)
CC1=CN([C@H]2C[C@H](O)[C@@H](CO)O2)C(=O)NC1=O,9.28,5,tertiary_amine,1-(2-Deoxy-beta-D-ribofuranosyl)thymine (Thymidine)
CC1=CN([C@H]2C[C@H](O)[C@@H](CO)O2)C(=O)NC1=O,9.65,5,tertiary_amine,1-(2-Deoxy-beta-D-ribofuranosyl)thymine (Thymidine)
CC1=CN([C@H]2C[C@H](O)[C@@H](CO)O2)C(=O)NC1=O,10.14,5,tertiary_amine,1-(2-Deoxy-beta-D-ribofuranosyl)thymine (Thymidine)
CC1=CN([C@H]2C[C@H](O)[C@@H](CO)O2)C(=O)NC1=O,9.8,5,tertiary_amine,1-(2-Deoxy-beta-D-ribofuranosyl)thymine (Thymidine)
CC1=CN([C@H]2C[C@H](O)[C@@H](CO)O2)C(=O)NC1=O,9.57,5,tertiary_amine,1-(2-Deoxy-beta-D-ribofuranosyl)thymine (Thymidine)
[Cl-].Cc1ncc(C[n+]2csc(CCO)c2C)c(N)n1,4.79,35,ring_nitrogen,"3-[(4-Amino-2-methyl-5-pyrimidinyl)methyl]-5-(2-hydroxyethyl)-4-methyl-1,3-thiazolium (chloride) (Thiamine)"
O=C1N=CN=C2NNC=C12,9.11,6:7,amine_secondary:amine_secondary,"1,2-Diazolo[3,4-d]-1,3-diazine-4-one (Allopurinol)"
O=C1N=CN=C2NNC=C12,1.4,6:7,amine_secondary:amine_secondary,"1,2-Diazolo[3,4-d]-1,3-diazine-4-one (Allopurinol)"
[nH]1cnc2ncncc12,8.66,1:5,amine_secondary:heterocyclic_nitrogen,"7-H-1,3-Diazolo[4,5-d]-1,3-diazine (Purine)"
[nH]1cnc2ncncc12,2.41,1:5,amine_secondary:heterocyclic_nitrogen,"7-H-1,3-Diazolo[4,5-d]-1,3-diazine (Purine)"
Cn1cnc2ncncc12,2.59,1,heterocyclic_nitrogen,7-Methylpurine
Cn1cnc2cncnc12,2.77,1,imidazole_nitrogen,9-Methylpurine
Cn1cnc2cncnc12,2.9,1,imidazole_nitrogen,9-Methylpurine
Cn1cnc2cnc(C)nc12,3.69,1,heterocyclic_nitrogen,"2,9-Dimethylpurine"
Cn1cnc2c(C)ncnc12,3.4,1,heterocyclic_nitrogen,"6,9-Dimethylpurine"
Cn1c(C)nc2cncnc12,3.36,1,heterocyclic_nitrogen,"8,9-Dimethylpurine"
O=C1NC=Nc2nc[nH]c12,8.68,8:2,amine_secondary:amine_secondary,6-Oxopurine (Hypoxanthine)
O=C1NC=Nc2nc[nH]c12,8.47,8:2,amine_secondary:amine_secondary,6-Oxopurine (Hypoxanthine)
O=C1NC=Nc2nc[nH]c12,8.85,8:2,amine_secondary:amine_secondary,6-Oxopurine (Hypoxanthine)
O=C1NC=Nc2nc[nH]c12,2.12,8:2,amine_secondary:amine_secondary,6-Oxopurine (Hypoxanthine)
O=C1NC=Nc2nc[nH]c12,2.05,8:2,amine_secondary:amine_secondary,6-Oxopurine (Hypoxanthine)
O=C1NC=Nc2nc[nH]c12,1.9,8:2,amine_secondary:amine_secondary,6-Oxopurine (Hypoxanthine)
Cn1cnc2N=CNC(=O)c12,9.07,1,heterocyclic_nitrogen,7-Methylhypoxanthine
Cn1cnc2C(=O)NC=Nc12,9.22,1,heterocyclic_nitrogen,9-Methylhypoxanthine
Sc1ncnc2nc[nH]c12,9.1,2:4,pyridine_nitrogen:pyridine_nitrogen,6-Mercaptopurine
Sc1ncnc2nc[nH]c12,6.9,2:4,pyridine_nitrogen:pyridine_nitrogen,6-Mercaptopurine
Sc1ncnc2nc[nH]c12,2.2,2:4,pyridine_nitrogen:pyridine_nitrogen,6-Mercaptopurine
Nc1nc(S)c2[nH]cnc2n1,9.8,0:6:4,aniline:amine_secondary:thiol,2-Amino-6-mercaptopurine
Nc1nc(S)c2[nH]cnc2n1,7.9,0:6:4,aniline:amine_secondary:thiol,2-Amino-6-mercaptopurine
Nc1nc(S)c2[nH]cnc2n1,3.2,0:6:4,aniline:amine_secondary:thiol,2-Amino-6-mercaptopurine
Nc1nc(S)nc2nc[nH]c12,9.6,0:9:4,aniline:amine_secondary:thiol,6-Amino-2-mercaptopurine
Nc1nc(S)nc2nc[nH]c12,7.7,0:9:4,aniline:amine_secondary:thiol,6-Amino-2-mercaptopurine
Nc1nc(S)nc2nc[nH]c12,3.8,0:9:4,aniline:amine_secondary:thiol,6-Amino-2-mercaptopurine
Nc1ncnc2nc[nH]c12,4.22,8,amine_secondary,6-Aminopurine (Adenine)
Nc1ncnc2nc[nH]c12,4.08,8,amine_secondary,6-Aminopurine (Adenine)
Nc1ncnc2nc[nH]c12,4.26,8,amine_secondary,6-Aminopurine (Adenine)
Nc1ncnc2nc[nH]c12,4.33,8,amine_secondary,6-Aminopurine (Adenine)
Nc1ncnc2nc[nH]c12,4.45,8,amine_secondary,6-Aminopurine (Adenine)
Nc1ncnc2nc[nH]c12,4.2,8,amine_secondary,6-Aminopurine (Adenine)
Cn1cnc2cnc(N)nc12,4.11,1,heterocyclic_nitrogen,2-Amino-9-methylpurine
Cn1cnc2ncnc(N)c12,4.13,9,aniline,6-Amino-7-methylpurine
Cn1cnc2c(N)ncnc12,3.9,6,aniline,6-Amino-9-methylpurine
Cn1cnc2c(N)ncnc12,4.3,6,aniline,6-Amino-9-methylpurine
Cn1c(N)nc2cncnc12,4.62,3,aniline,8-Amino-9-methylpurine
Cn1cnc2c(N)nc(C)nc12,5.02,1,heterocyclic_nitrogen,"6-Amino-2,9-dimethylpurine"
Cn1c(C)nc2c(N)ncnc12,4.51,7,aniline,"6-Amino-8,9-dimethylpurine"
NC1=Nc2nc[nH]c2C(=O)N1,9.42,6,amine_secondary,2-Amino-6-oxopurine (Guanine)
CCOC(C)n1cnc2c(N)ncnc12,3.7,10,aniline,6-Amino-9-(1-ethoxyethyl)purine
Nc1nc(N)c2[nH]cnc2n1,10.37,6:0,amine_secondary:aniline,"2,6-Diaminopurine"
Nc1nc(N)c2[nH]cnc2n1,10.27,6:0,amine_secondary:aniline,"2,6-Diaminopurine"
Nc1nc(N)c2[nH]cnc2n1,4.89,6:0,amine_secondary:aniline,"2,6-Diaminopurine"
Nc1nc(N)c2[nH]cnc2n1,5.04,6:0,amine_secondary:aniline,"2,6-Diaminopurine"
OC[C@H]1O[C@H]([C@H](O)[C@@H]1O)n2cnc3cncnc23,2.31,0,alcohol,9-(beta-D-Ribofuranosyl)purine
COc1ncnc2n(cnc12)[C@@H]3O[C@H](CO)[C@@H](O)[C@H]3O,1.1,15,alcohol,6-Methoxy-9-(beta-D-ribofuranosyl)purine
CSc1ncnc2n(cnc12)[C@@H]3O[C@H](CO)[C@@H](O)[C@H]3O,1.1,15,alcohol,6-Methylthio-9-(beta-D-ribofuranosyl)purine
OC[C@H]1O[C@H]([C@H](O)[C@@H]1O)n2cnc3c(O)ncnc23,8.7,15:17,pyridine_nitrogen:pyridine_nitrogen,9-(beta-D-Ribofuranosyl)hypoxanthine (Inosine)
OC[C@H]1O[C@H]([C@H](O)[C@@H]1O)n2cnc3c(O)ncnc23,8.45,15:17,pyridine_nitrogen:pyridine_nitrogen,9-(beta-D-Ribofuranosyl)hypoxanthine (Inosine)
OC[C@H]1O[C@H]([C@H](O)[C@@H]1O)n2cnc3c(O)ncnc23,8.96,15:17,pyridine_nitrogen:pyridine_nitrogen,9-(beta-D-Ribofuranosyl)hypoxanthine (Inosine)
OC[C@H]1O[C@H]([C@H](O)[C@@H]1O)n2cnc3c(O)ncnc23,1.2,15:17,pyridine_nitrogen:pyridine_nitrogen,9-(beta-D-Ribofuranosyl)hypoxanthine (Inosine)
OC[C@H]1O[C@H]([C@H](O)[C@@H]1O)n2cnc3c(O)ncnc23,1.0,15:17,pyridine_nitrogen:pyridine_nitrogen,9-(beta-D-Ribofuranosyl)hypoxanthine (Inosine)
OC[C@H]1O[C@H]([C@H](O)[C@@H]1O)n2cnc3C(=O)NC(=O)Nc23,5.47,15:18,amine_secondary:amine_secondary,9-(beta-D-Ribofuranosyl)xanthine (Xanthosine)
OC[C@H]1O[C@H]([C@H](O)[C@@H]1O)n2cnc3C(=O)NC(=O)Nc23,5.673,15:18,amine_secondary:amine_secondary,9-(beta-D-Ribofuranosyl)xanthine (Xanthosine)
OC[C@H]1O[C@H]([C@H](O)[C@@H]1O)n2cnc3C(=O)NC(=O)Nc23,0.7,15:18,amine_secondary:amine_secondary,9-(beta-D-Ribofuranosyl)xanthine (Xanthosine)
OC[C@H]1O[C@H]([C@H](O)[C@@H]1O)n2cnc3C(=O)NC(=O)Nc23,1.68,15:18,amine_secondary:amine_secondary,9-(beta-D-Ribofuranosyl)xanthine (Xanthosine)
Nc1ncnc2n(cnc12)[C@H]3C[C@H](O)[C@@H](CO)O3,3.77,0,aniline,2'-Deoxyadenosine
Nc1ncnc2n(cnc12)[C@@H]3O[C@H](CO)[C@@H](O)[C@H]3O,3.55,0,aniline,9-(beta-D-Ribofuranosyl)adenine (Adenosine)
Nc1ncnc2n(cnc12)[C@@H]3O[C@H](CO)[C@@H](O)[C@H]3O,3.43,0,aniline,9-(beta-D-Ribofuranosyl)adenine (Adenosine)
Nc1ncnc2n(cnc12)[C@@H]3O[C@H](CO)[C@@H](O)[C@H]3O,3.61,0,aniline,9-(beta-D-Ribofuranosyl)adenine (Adenosine)
Nc1ncnc2n(cnc12)[C@@H]3O[C@H](CO)[C@@H](O)[C@H]3O,3.68,0,aniline,9-(beta-D-Ribofuranosyl)adenine (Adenosine)
Nc1ncnc2n(cnc12)[C@@H]3O[C@H](CO)[C@@H](O)[C@H]3O,3.8,0,aniline,9-(beta-D-Ribofuranosyl)adenine (Adenosine)
Nc1ncnc2n(cnc12)[C@@H]3O[C@H](CO)[C@@H](O)[C@H]3O,3.5,0,aniline,9-(beta-D-Ribofuranosyl)adenine (Adenosine)
NC1=Nc2n(cnc2C(=O)N1)[C@H]3C[C@H](O)[C@@H](CO)O3,9.11,0:10,aniline:amine_secondary,2'-Deoxyguanosine
NC1=Nc2n(cnc2C(=O)N1)[C@H]3C[C@H](O)[C@@H](CO)O3,2.12,0:10,aniline:amine_secondary,2'-Deoxyguanosine
NC1=Nc2n(cnc2C(=O)N1)[C@@H]3O[C@H](CO)[C@@H](O)[C@H]3O,9.22,0:10,aniline:amine_secondary,9-(beta-D-Ribofuranosyl)guanine (Guanosine)
NC1=Nc2n(cnc2C(=O)N1)[C@@H]3O[C@H](CO)[C@@H](O)[C@H]3O,8.98,0:10,aniline:amine_secondary,9-(beta-D-Ribofuranosyl)guanine (Guanosine)
NC1=Nc2n(cnc2C(=O)N1)[C@@H]3O[C@H](CO)[C@@H](O)[C@H]3O,9.14,0:10,aniline:amine_secondary,9-(beta-D-Ribofuranosyl)guanine (Guanosine)
NC1=Nc2n(cnc2C(=O)N1)[C@@H]3O[C@H](CO)[C@@H](O)[C@H]3O,9.26,0:10,aniline:amine_secondary,9-(beta-D-Ribofuranosyl)guanine (Guanosine)
NC1=Nc2n(cnc2C(=O)N1)[C@@H]3O[C@H](CO)[C@@H](O)[C@H]3O,2.16,0:10,aniline:amine_secondary,9-(beta-D-Ribofuranosyl)guanine (Guanosine)
NC1=Nc2n(cnc2C(=O)N1)[C@@H]3O[C@H](CO)[C@@H](O)[C@H]3O,2.08,0:10,aniline:amine_secondary,9-(beta-D-Ribofuranosyl)guanine (Guanosine)
NC1=Nc2n(cnc2C(=O)N1)[C@@H]3O[C@H](CO)[C@@H](O)[C@H]3O,2.25,0:10,aniline:amine_secondary,9-(beta-D-Ribofuranosyl)guanine (Guanosine)
NC1=Nc2n(cnc2C(=O)N1)[C@@H]3O[C@H](CO)[C@@H](O)[C@H]3O,1.92,0:10,aniline:amine_secondary,9-(beta-D-Ribofuranosyl)guanine (Guanosine)
Nc1ncnc2nn[nH]c12,6.09,2:4,pyridine_nitrogen:pyridine_nitrogen,"6-Amino-1,2,3-triazolo[4,5-d]-1,3-diazine (8-Azaadenine)"
Nc1ncnc2nn[nH]c12,5.99,2:4,pyridine_nitrogen:pyridine_nitrogen,"6-Amino-1,2,3-triazolo[4,5-d]-1,3-diazine (8-Azaadenine)"
Nc1ncnc2nn[nH]c12,2.76,2:4,pyridine_nitrogen:pyridine_nitrogen,"6-Amino-1,2,3-triazolo[4,5-d]-1,3-diazine (8-Azaadenine)"
Nc1ncnc2nn[nH]c12,2.73,2:4,pyridine_nitrogen:pyridine_nitrogen,"6-Amino-1,2,3-triazolo[4,5-d]-1,3-diazine (8-Azaadenine)"
O[C@H]1[C@@H](O)[C@@H](O[C@@H]1CO[P](O)(=O)O[P](O)(O)=O)n2cnc3C(=O)N=CNc23,6.69,25,amine_secondary,Inosine-5'-(trihydrogendiphosphate) (IDP)
O[C@H]1[C@@H](O)[C@@H](O[C@@H]1CO[P](O)(=O)O[P](O)(O)=O)n2cnc3C(=O)N=CNc23,7.18,25,amine_secondary,Inosine-5'-(trihydrogendiphosphate) (IDP)
Nc1ncnc2n(cnc12)C3OC(CO[P](O)(=O)O[P](O)(O)=O)C(O)C3O,6.3,0:24:26,amine_primary:alcohol:alcohol,Adenosine-5'-(trihydrogendiphosphate) (ADP)
Nc1ncnc2n(cnc12)C3OC(CO[P](O)(=O)O[P](O)(O)=O)C(O)C3O,6.38,0:24:26,amine_primary:alcohol:alcohol,Adenosine-5'-(trihydrogendiphosphate) (ADP)
Nc1ncnc2n(cnc12)C3OC(CO[P](O)(=O)O[P](O)(O)=O)C(O)C3O,6.55,0:24:26,amine_primary:alcohol:alcohol,Adenosine-5'-(trihydrogendiphosphate) (ADP)
Nc1ncnc2n(cnc12)C3OC(CO[P](O)(=O)O[P](O)(O)=O)C(O)C3O,6.6,0:24:26,amine_primary:alcohol:alcohol,Adenosine-5'-(trihydrogendiphosphate) (ADP)
Nc1ncnc2n(cnc12)C3OC(CO[P](O)(=O)O[P](O)(O)=O)C(O)C3O,6.65,0:24:26,amine_primary:alcohol:alcohol,Adenosine-5'-(trihydrogendiphosphate) (ADP)
Nc1ncnc2n(cnc12)C3OC(CO[P](O)(=O)O[P](O)(O)=O)C(O)C3O,6.32,0:24:26,amine_primary:alcohol:alcohol,Adenosine-5'-(trihydrogendiphosphate) (ADP)
Nc1ncnc2n(cnc12)C3OC(CO[P](O)(=O)O[P](O)(O)=O)C(O)C3O,7.2,0:24:26,amine_primary:alcohol:alcohol,Adenosine-5'-(trihydrogendiphosphate) (ADP)
Nc1ncnc2n(cnc12)C3OC(CO[P](O)(=O)O[P](O)(O)=O)C(O)C3O,7.44,0:24:26,amine_primary:alcohol:alcohol,Adenosine-5'-(trihydrogendiphosphate) (ADP)
Nc1ncnc2n(cnc12)C3OC(CO[P](O)(=O)O[P](O)(O)=O)C(O)C3O,3.87,0:24:26,amine_primary:alcohol:alcohol,Adenosine-5'-(trihydrogendiphosphate) (ADP)
Nc1ncnc2n(cnc12)C3OC(CO[P](O)(=O)O[P](O)(O)=O)C(O)C3O,3.76,0:24:26,amine_primary:alcohol:alcohol,Adenosine-5'-(trihydrogendiphosphate) (ADP)
Nc1ncnc2n(cnc12)C3OC(CO[P](O)(=O)O[P](O)(O)=O)C(O)C3O,3.88,0:24:26,amine_primary:alcohol:alcohol,Adenosine-5'-(trihydrogendiphosphate) (ADP)
Nc1ncnc2n(cnc12)C3OC(CO[P](O)(=O)O[P](O)(O)=O)C(O)C3O,3.89,0:24:26,amine_primary:alcohol:alcohol,Adenosine-5'-(trihydrogendiphosphate) (ADP)
Nc1ncnc2n(cnc12)C3OC(CO[P](O)(=O)O[P](O)(O)=O)C(O)C3O,3.9,0:24:26,amine_primary:alcohol:alcohol,Adenosine-5'-(trihydrogendiphosphate) (ADP)
Nc1ncnc2n(cnc12)C3OC(CO[P](O)(=O)O[P](O)(O)=O)C(O)C3O,4.2,0:24:26,amine_primary:alcohol:alcohol,Adenosine-5'-(trihydrogendiphosphate) (ADP)
Nc1ncnc2n(cnc12)C3OC(CO[P](O)(=O)O[P](O)(O)=O)C(O)C3O,3.79,0:24:26,amine_primary:alcohol:alcohol,Adenosine-5'-(trihydrogendiphosphate) (ADP)
Nc1ncnc2n(cnc12)C3OC(CO[P](O)(=O)O[P](O)(O)=O)C(O)C3O,1.8,0:24:26,amine_primary:alcohol:alcohol,Adenosine-5'-(trihydrogendiphosphate) (ADP)
Nc1ncnc2n(cnc12)C3OC(CO[P](O)(=O)O[P](O)(O)=O)C(O)C3O,2.16,0:24:26,amine_primary:alcohol:alcohol,Adenosine-5'-(trihydrogendiphosphate) (ADP)
NC1=NC(=O)c2ncn(C3OC(CO[P](O)(=O)O[P](O)(O)=O)C(O)C3O)c2N1,6.3,2:27,pyridine_nitrogen:pyridine_nitrogen,Guanosine-5'-(trihydrogendiphosphate) (GDP)
NC1=NC(=O)c2ncn(C3OC(CO[P](O)(=O)O[P](O)(O)=O)C(O)C3O)c2N1,6.71,2:27,pyridine_nitrogen:pyridine_nitrogen,Guanosine-5'-(trihydrogendiphosphate) (GDP)
NC1=NC(=O)c2ncn(C3OC(CO[P](O)(=O)O[P](O)(O)=O)C(O)C3O)c2N1,7.19,2:27,pyridine_nitrogen:pyridine_nitrogen,Guanosine-5'-(trihydrogendiphosphate) (GDP)
NC1=NC(=O)c2ncn(C3OC(CO[P](O)(=O)O[P](O)(O)=O)C(O)C3O)c2N1,2.8,2:27,pyridine_nitrogen:pyridine_nitrogen,Guanosine-5'-(trihydrogendiphosphate) (GDP)
OC1C(O)C(OC1CO[P](O)(=O)O[P](O)(=O)O[P](O)(O)=O)n2cnc3C(=O)N=CNc23,6.4,29:0,amine_secondary:alcohol,Inosine-5'-(tetrahydrogentriphosphate) (ITP)
OC1C(O)C(OC1CO[P](O)(=O)O[P](O)(=O)O[P](O)(O)=O)n2cnc3C(=O)N=CNc23,6.49,29:0,amine_secondary:alcohol,Inosine-5'-(tetrahydrogentriphosphate) (ITP)
OC1C(O)C(OC1CO[P](O)(=O)O[P](O)(=O)O[P](O)(O)=O)n2cnc3C(=O)N=CNc23,7.01,29:0,amine_secondary:alcohol,Inosine-5'-(tetrahydrogentriphosphate) (ITP)
OC1C(O)C(OC1CO[P](O)(=O)O[P](O)(=O)O[P](O)(O)=O)n2cnc3C(=O)N=CNc23,6.39,29:0,amine_secondary:alcohol,Inosine-5'-(tetrahydrogentriphosphate) (ITP)
OC1C(O)C(OC1CO[P](O)(=O)O[P](O)(=O)O[P](O)(O)=O)n2cnc3C(=O)N=CNc23,7.68,29:0,amine_secondary:alcohol,Inosine-5'-(tetrahydrogentriphosphate) (ITP)
OC1C(O)C(OC1CO[P](O)(=O)O[P](O)(=O)O[P](O)(O)=O)n2cnc3C(=O)N=CNc23,2.15,29:0,amine_secondary:alcohol,Inosine-5'-(tetrahydrogentriphosphate) (ITP)
OC1C(O)C(OC1CO[P](O)(=O)O[P](O)(=O)O[P](O)(O)=O)n2cnc3C(=O)N=CNc23,2.18,29:0,amine_secondary:alcohol,Inosine-5'-(tetrahydrogentriphosphate) (ITP)
Nc1ncnc2n(cnc12)C3OC(CO[P](O)(=O)O[P](O)(=O)O[P](O)(O)=O)C(O)C3O,6.38,0:28:30,amine_primary:alcohol:alcohol,Adenosine-5'-(tetrahydrogentriphosphate) (ATP)
Nc1ncnc2n(cnc12)C3OC(CO[P](O)(=O)O[P](O)(=O)O[P](O)(O)=O)C(O)C3O,6.48,0:28:30,amine_primary:alcohol:alcohol,Adenosine-5'-(tetrahydrogentriphosphate) (ATP)
Nc1ncnc2n(cnc12)C3OC(CO[P](O)(=O)O[P](O)(=O)O[P](O)(O)=O)C(O)C3O,6.82,0:28:30,amine_primary:alcohol:alcohol,Adenosine-5'-(tetrahydrogentriphosphate) (ATP)
Nc1ncnc2n(cnc12)C3OC(CO[P](O)(=O)O[P](O)(=O)O[P](O)(O)=O)C(O)C3O,6.92,0:28:30,amine_primary:alcohol:alcohol,Adenosine-5'-(tetrahydrogentriphosphate) (ATP)
Nc1ncnc2n(cnc12)C3OC(CO[P](O)(=O)O[P](O)(=O)O[P](O)(O)=O)C(O)C3O,6.95,0:28:30,amine_primary:alcohol:alcohol,Adenosine-5'-(tetrahydrogentriphosphate) (ATP)
Nc1ncnc2n(cnc12)C3OC(CO[P](O)(=O)O[P](O)(=O)O[P](O)(O)=O)C(O)C3O,6.42,0:28:30,amine_primary:alcohol:alcohol,Adenosine-5'-(tetrahydrogentriphosphate) (ATP)