SMILES,pKa,Dissociable_Atoms,Functional_Group,Name,Dissociable_Atoms_Ordered,Functional_Group_Ordered,Dissociation_Order
CC(=O)NCC(=O)NCC(=O)N[C@@H](Cc1c[nH]cn1)C(O)=O,2.96,20:3,carboxylic_acid:amine_secondary,N-Acetylglycylglycyl-L-histidine,20:3,carboxylic_acid:amine_secondary,20(carboxylic_acid) > 3(amine_secondary)
CC(=O)NCC(=O)N[C@@H](Cc1c[nH]cn1)C(=O)NCC(O)=O,6.74,20:3,carboxylic_acid:amine_secondary,N-Acetylglycyl-L-histidylglycine,20:3,carboxylic_acid:amine_secondary,20(carboxylic_acid) > 3(amine_secondary)
CC(=O)NCC(=O)N[C@@H](Cc1c[nH]cn1)C(=O)NCC(O)=O,3.13,20:3,carboxylic_acid:amine_secondary,N-Acetylglycyl-L-histidylglycine,20:3,carboxylic_acid:amine_secondary,20(carboxylic_acid) > 3(amine_secondary)
CC(=O)NCC(=O)N(CC(O)=O)C(=O)[C@@H](N)Cc1cncn1Cc2ccccc2,6.25,41:43,pyridine_nitrogen:pyridine_nitrogen,N-Acetylglycyl(N(3)-benzyl-L-histidyl)glycine,41:43,pyridine_nitrogen:pyridine_nitrogen,41(pyridine_nitrogen) > 43(pyridine_nitrogen)
CC(=O)NCC(=O)N(CC(O)=O)C(=O)[C@@H](N)Cc1cncn1Cc2ccccc2,3.18,41:43,pyridine_nitrogen:pyridine_nitrogen,N-Acetylglycyl(N(3)-benzyl-L-histidyl)glycine,41:43,pyridine_nitrogen:pyridine_nitrogen,41(pyridine_nitrogen) > 43(pyridine_nitrogen)
CC(=O)NCC(=O)NCC(=O)NCC(=O)N[C@@H](Cc1c[nH]cn1)C(O)=O,7.09,24:3,carboxylic_acid:amine_secondary,N-Acetylglycylglycylglycyl-L-histidine,24:3,carboxylic_acid:amine_secondary,24(carboxylic_acid) > 3(amine_secondary)
CC(=O)NCC(=O)NCC(=O)NCC(=O)N[C@@H](Cc1c[nH]cn1)C(O)=O,3.04,24:3,carboxylic_acid:amine_secondary,N-Acetylglycylglycylglycyl-L-histidine,24:3,carboxylic_acid:amine_secondary,24(carboxylic_acid) > 3(amine_secondary)
CC(=O)NCC(=O)NCC(=O)N[C@@H](Cc1c[nH]cn1)C(=O)NCC(O)=O,6.78,24:3,carboxylic_acid:amine_secondary,N-Acetylglycylglycyl-L-histidylglycine,24:3,carboxylic_acid:amine_secondary,24(carboxylic_acid) > 3(amine_secondary)
CC(=O)NCC(=O)NCC(=O)N[C@@H](Cc1c[nH]cn1)C(=O)NCC(O)=O,3.17,24:3,carboxylic_acid:amine_secondary,N-Acetylglycylglycyl-L-histidylglycine,24:3,carboxylic_acid:amine_secondary,24(carboxylic_acid) > 3(amine_secondary)
OC(=O)CNCCNCC(O)=O,9.61,0:4:7:10,carboxylic_acid:amine_secondary:amine_secondary:carboxylic_acid,Ethylenediiminodiacetic acid (EDDA),0:10:4:7,carboxylic_acid:carboxylic_acid:amine_secondary:amine_secondary,0(carboxylic_acid) > 10(carboxylic_acid) > 4(amine_secondary) > 7(amine_secondary)
OC(=O)CNCCNCC(O)=O,9.36,0:4:7:10,carboxylic_acid:amine_secondary:amine_secondary:carboxylic_acid,Ethylenediiminodiacetic acid (EDDA),0:10:4:7,carboxylic_acid:carboxylic_acid:amine_secondary:amine_secondary,0(carboxylic_acid) > 10(carboxylic_acid) > 4(amine_secondary) > 7(amine_secondary)
OC(=O)CNCCNCC(O)=O,9.64,0:4:7:10,carboxylic_acid:amine_secondary:amine_secondary:carboxylic_acid,Ethylenediiminodiacetic acid (EDDA),0:10:4:7,carboxylic_acid:carboxylic_acid:amine_secondary:amine_secondary,0(carboxylic_acid) > 10(carboxylic_acid) > 4(amine_secondary) > 7(amine_secondary)
OC(=O)CNCCNCC(O)=O,10.06,0:4:7:10,carboxylic_acid:amine_secondary:amine_secondary:carboxylic_acid,Ethylenediiminodiacetic acid (EDDA),0:10:4:7,carboxylic_acid:carboxylic_acid:amine_secondary:amine_secondary,0(carboxylic_acid) > 10(carboxylic_acid) > 4(amine_secondary) > 7(amine_secondary)
OC(=O)CNCCNCC(O)=O,6.55,0:4:7:10,carboxylic_acid:amine_secondary:amine_secondary:carboxylic_acid,Ethylenediiminodiacetic acid (EDDA),0:10:4:7,carboxylic_acid:carboxylic_acid:amine_secondary:amine_secondary,0(carboxylic_acid) > 10(carboxylic_acid) > 4(amine_secondary) > 7(amine_secondary)
OC(=O)CNCCNCC(O)=O,6.36,0:4:7:10,carboxylic_acid:amine_secondary:amine_secondary:carboxylic_acid,Ethylenediiminodiacetic acid (EDDA),0:10:4:7,carboxylic_acid:carboxylic_acid:amine_secondary:amine_secondary,0(carboxylic_acid) > 10(carboxylic_acid) > 4(amine_secondary) > 7(amine_secondary)
OC(=O)CNCCNCC(O)=O,6.7,0:4:7:10,carboxylic_acid:amine_secondary:amine_secondary:carboxylic_acid,Ethylenediiminodiacetic acid (EDDA),0:10:4:7,carboxylic_acid:carboxylic_acid:amine_secondary:amine_secondary,0(carboxylic_acid) > 10(carboxylic_acid) > 4(amine_secondary) > 7(amine_secondary)
OC(=O)CNCCNCC(O)=O,7.18,0:4:7:10,carboxylic_acid:amine_secondary:amine_secondary:carboxylic_acid,Ethylenediiminodiacetic acid (EDDA),0:10:4:7,carboxylic_acid:carboxylic_acid:amine_secondary:amine_secondary,0(carboxylic_acid) > 10(carboxylic_acid) > 4(amine_secondary) > 7(amine_secondary)
OC(=O)CNCCNCC(O)=O,2.12,0:4:7:10,carboxylic_acid:amine_secondary:amine_secondary:carboxylic_acid,Ethylenediiminodiacetic acid (EDDA),0:10:4:7,carboxylic_acid:carboxylic_acid:amine_secondary:amine_secondary,0(carboxylic_acid) > 10(carboxylic_acid) > 4(amine_secondary) > 7(amine_secondary)
OC(=O)CNCCNCC(O)=O,2.18,0:4:7:10,carboxylic_acid:amine_secondary:amine_secondary:carboxylic_acid,Ethylenediiminodiacetic acid (EDDA),0:10:4:7,carboxylic_acid:carboxylic_acid:amine_secondary:amine_secondary,0(carboxylic_acid) > 10(carboxylic_acid) > 4(amine_secondary) > 7(amine_secondary)
OC(=O)CNCCNCC(O)=O,2.35,0:4:7:10,carboxylic_acid:amine_secondary:amine_secondary:carboxylic_acid,Ethylenediiminodiacetic acid (EDDA),0:10:4:7,carboxylic_acid:carboxylic_acid:amine_secondary:amine_secondary,0(carboxylic_acid) > 10(carboxylic_acid) > 4(amine_secondary) > 7(amine_secondary)
OC(=O)CNCCNCC(O)=O,2.98,0:4:7:10,carboxylic_acid:amine_secondary:amine_secondary:carboxylic_acid,Ethylenediiminodiacetic acid (EDDA),0:10:4:7,carboxylic_acid:carboxylic_acid:amine_secondary:amine_secondary,0(carboxylic_acid) > 10(carboxylic_acid) > 4(amine_secondary) > 7(amine_secondary)
OC(=O)CNCCNCC(O)=O,1.3,0:4:7:10,carboxylic_acid:amine_secondary:amine_secondary:carboxylic_acid,Ethylenediiminodiacetic acid (EDDA),0:10:4:7,carboxylic_acid:carboxylic_acid:amine_secondary:amine_secondary,0(carboxylic_acid) > 10(carboxylic_acid) > 4(amine_secondary) > 7(amine_secondary)
OC(=O)CNCCNCC(O)=O,1.2,0:4:7:10,carboxylic_acid:amine_secondary:amine_secondary:carboxylic_acid,Ethylenediiminodiacetic acid (EDDA),0:10:4:7,carboxylic_acid:carboxylic_acid:amine_secondary:amine_secondary,0(carboxylic_acid) > 10(carboxylic_acid) > 4(amine_secondary) > 7(amine_secondary)
OC(=O)CNCCNCC(O)=O,1.75,0:4:7:10,carboxylic_acid:amine_secondary:amine_secondary:carboxylic_acid,Ethylenediiminodiacetic acid (EDDA),0:10:4:7,carboxylic_acid:carboxylic_acid:amine_secondary:amine_secondary,0(carboxylic_acid) > 10(carboxylic_acid) > 4(amine_secondary) > 7(amine_secondary)
OC(=O)CNCCNCC(O)=O,1.5,0:4:7:10,carboxylic_acid:amine_secondary:amine_secondary:carboxylic_acid,Ethylenediiminodiacetic acid (EDDA),0:10:4:7,carboxylic_acid:carboxylic_acid:amine_secondary:amine_secondary,0(carboxylic_acid) > 10(carboxylic_acid) > 4(amine_secondary) > 7(amine_secondary)
OC(=O)CN=C[P](O)(=O)C=NCC(O)=O,9.0,6:8:7,phosphate:phosphate:phosphate,Bis(carboxymethyliminomethyl)phosphinic acid,6:8:7,phosphate:phosphate:phosphate,6(phosphate) > 8(phosphate) > 7(phosphate)
OC(=O)CN=C[P](O)(=O)C=NCC(O)=O,6.55,6:8:7,phosphate:phosphate:phosphate,Bis(carboxymethyliminomethyl)phosphinic acid,6:8:7,phosphate:phosphate:phosphate,6(phosphate) > 8(phosphate) > 7(phosphate)
OC(=O)CN=C[P](O)(=O)C=NCC(O)=O,2.1,6:8:7,phosphate:phosphate:phosphate,Bis(carboxymethyliminomethyl)phosphinic acid,6:8:7,phosphate:phosphate:phosphate,6(phosphate) > 8(phosphate) > 7(phosphate)
OC(=O)CC(NCCNC(CC(O)=O)C(O)=O)C(O)=O,10.01,0:12:15:18,carboxylic_acid:carboxylic_acid:carboxylic_acid:carboxylic_acid,Ethylenediiminodibutanedioic acid (EDDS),0:12:15:18,carboxylic_acid:carboxylic_acid:carboxylic_acid:carboxylic_acid,0(carboxylic_acid) > 12(carboxylic_acid) > 15(carboxylic_acid) > 18(carboxylic_acid)
OC(=O)CC(NCCNC(CC(O)=O)C(O)=O)C(O)=O,10.13,0:12:15:18,carboxylic_acid:carboxylic_acid:carboxylic_acid:carboxylic_acid,Ethylenediiminodibutanedioic acid (EDDS),0:12:15:18,carboxylic_acid:carboxylic_acid:carboxylic_acid:carboxylic_acid,0(carboxylic_acid) > 12(carboxylic_acid) > 15(carboxylic_acid) > 18(carboxylic_acid)
OC(=O)CC(NCCNC(CC(O)=O)C(O)=O)C(O)=O,6.84,0:12:15:18,carboxylic_acid:carboxylic_acid:carboxylic_acid:carboxylic_acid,Ethylenediiminodibutanedioic acid (EDDS),0:12:15:18,carboxylic_acid:carboxylic_acid:carboxylic_acid:carboxylic_acid,0(carboxylic_acid) > 12(carboxylic_acid) > 15(carboxylic_acid) > 18(carboxylic_acid)
OC(=O)CC(NCCNC(CC(O)=O)C(O)=O)C(O)=O,6.93,0:12:15:18,carboxylic_acid:carboxylic_acid:carboxylic_acid:carboxylic_acid,Ethylenediiminodibutanedioic acid (EDDS),0:12:15:18,carboxylic_acid:carboxylic_acid:carboxylic_acid:carboxylic_acid,0(carboxylic_acid) > 12(carboxylic_acid) > 15(carboxylic_acid) > 18(carboxylic_acid)
OC(=O)CC(NCCNC(CC(O)=O)C(O)=O)C(O)=O,6.72,0:12:15:18,carboxylic_acid:carboxylic_acid:carboxylic_acid:carboxylic_acid,Ethylenediiminodibutanedioic acid (EDDS),0:12:15:18,carboxylic_acid:carboxylic_acid:carboxylic_acid:carboxylic_acid,0(carboxylic_acid) > 12(carboxylic_acid) > 15(carboxylic_acid) > 18(carboxylic_acid)
OC(=O)CC(NCCNC(CC(O)=O)C(O)=O)C(O)=O,6.65,0:12:15:18,carboxylic_acid:carboxylic_acid:carboxylic_acid:carboxylic_acid,Ethylenediiminodibutanedioic acid (EDDS),0:12:15:18,carboxylic_acid:carboxylic_acid:carboxylic_acid:carboxylic_acid,0(carboxylic_acid) > 12(carboxylic_acid) > 15(carboxylic_acid) > 18(carboxylic_acid)
OC(=O)CC(NCCNC(CC(O)=O)C(O)=O)C(O)=O,7.52,0:12:15:18,carboxylic_acid:carboxylic_acid:carboxylic_acid:carboxylic_acid,Ethylenediiminodibutanedioic acid (EDDS),0:12:15:18,carboxylic_acid:carboxylic_acid:carboxylic_acid:carboxylic_acid,0(carboxylic_acid) > 12(carboxylic_acid) > 15(carboxylic_acid) > 18(carboxylic_acid)
OC(=O)CC(NCCNC(CC(O)=O)C(O)=O)C(O)=O,3.86,0:12:15:18,carboxylic_acid:carboxylic_acid:carboxylic_acid:carboxylic_acid,Ethylenediiminodibutanedioic acid (EDDS),0:12:15:18,carboxylic_acid:carboxylic_acid:carboxylic_acid:carboxylic_acid,0(carboxylic_acid) > 12(carboxylic_acid) > 15(carboxylic_acid) > 18(carboxylic_acid)
OC(=O)CC(NCCNC(CC(O)=O)C(O)=O)C(O)=O,3.85,0:12:15:18,carboxylic_acid:carboxylic_acid:carboxylic_acid:carboxylic_acid,Ethylenediiminodibutanedioic acid (EDDS),0:12:15:18,carboxylic_acid:carboxylic_acid:carboxylic_acid:carboxylic_acid,0(carboxylic_acid) > 12(carboxylic_acid) > 15(carboxylic_acid) > 18(carboxylic_acid)
OC(=O)CC(NCCNC(CC(O)=O)C(O)=O)C(O)=O,3.76,0:12:15:18,carboxylic_acid:carboxylic_acid:carboxylic_acid:carboxylic_acid,Ethylenediiminodibutanedioic acid (EDDS),0:12:15:18,carboxylic_acid:carboxylic_acid:carboxylic_acid:carboxylic_acid,0(carboxylic_acid) > 12(carboxylic_acid) > 15(carboxylic_acid) > 18(carboxylic_acid)
OC(=O)CC(NCCNC(CC(O)=O)C(O)=O)C(O)=O,3.81,0:12:15:18,carboxylic_acid:carboxylic_acid:carboxylic_acid:carboxylic_acid,Ethylenediiminodibutanedioic acid (EDDS),0:12:15:18,carboxylic_acid:carboxylic_acid:carboxylic_acid:carboxylic_acid,0(carboxylic_acid) > 12(carboxylic_acid) > 15(carboxylic_acid) > 18(carboxylic_acid)
OC(=O)CC(NCCNC(CC(O)=O)C(O)=O)C(O)=O,4.28,0:12:15:18,carboxylic_acid:carboxylic_acid:carboxylic_acid:carboxylic_acid,Ethylenediiminodibutanedioic acid (EDDS),0:12:15:18,carboxylic_acid:carboxylic_acid:carboxylic_acid:carboxylic_acid,0(carboxylic_acid) > 12(carboxylic_acid) > 15(carboxylic_acid) > 18(carboxylic_acid)
OC(=O)CC(NCCNC(CC(O)=O)C(O)=O)C(O)=O,2.95,0:12:15:18,carboxylic_acid:carboxylic_acid:carboxylic_acid:carboxylic_acid,Ethylenediiminodibutanedioic acid (EDDS),0:12:15:18,carboxylic_acid:carboxylic_acid:carboxylic_acid:carboxylic_acid,0(carboxylic_acid) > 12(carboxylic_acid) > 15(carboxylic_acid) > 18(carboxylic_acid)
OC(=O)CC(NCCNC(CC(O)=O)C(O)=O)C(O)=O,3.0,0:12:15:18,carboxylic_acid:carboxylic_acid:carboxylic_acid:carboxylic_acid,Ethylenediiminodibutanedioic acid (EDDS),0:12:15:18,carboxylic_acid:carboxylic_acid:carboxylic_acid:carboxylic_acid,0(carboxylic_acid) > 12(carboxylic_acid) > 15(carboxylic_acid) > 18(carboxylic_acid)
OC(CNC(C(O)=O)C(O)=O)CNC(C(O)=O)C(O)=O,10.4,6:9:15:18,carboxylic_acid:carboxylic_acid:carboxylic_acid:carboxylic_acid,"2-Hydroxy-1,3-propylenediiminodipropanedioic acid",6:9:15:18,carboxylic_acid:carboxylic_acid:carboxylic_acid:carboxylic_acid,6(carboxylic_acid) > 9(carboxylic_acid) > 15(carboxylic_acid) > 18(carboxylic_acid)
OC(CNC(C(O)=O)C(O)=O)CNC(C(O)=O)C(O)=O,8.9,6:9:15:18,carboxylic_acid:carboxylic_acid:carboxylic_acid:carboxylic_acid,"2-Hydroxy-1,3-propylenediiminodipropanedioic acid",6:9:15:18,carboxylic_acid:carboxylic_acid:carboxylic_acid:carboxylic_acid,6(carboxylic_acid) > 9(carboxylic_acid) > 15(carboxylic_acid) > 18(carboxylic_acid)
OC(CNC(C(O)=O)C(O)=O)CNC(C(O)=O)C(O)=O,3.4,6:9:15:18,carboxylic_acid:carboxylic_acid:carboxylic_acid:carboxylic_acid,"2-Hydroxy-1,3-propylenediiminodipropanedioic acid",6:9:15:18,carboxylic_acid:carboxylic_acid:carboxylic_acid:carboxylic_acid,6(carboxylic_acid) > 9(carboxylic_acid) > 15(carboxylic_acid) > 18(carboxylic_acid)
OC(CNC(C(O)=O)C(O)=O)CNC(C(O)=O)C(O)=O,2.41,6:9:15:18,carboxylic_acid:carboxylic_acid:carboxylic_acid:carboxylic_acid,"2-Hydroxy-1,3-propylenediiminodipropanedioic acid",6:9:15:18,carboxylic_acid:carboxylic_acid:carboxylic_acid:carboxylic_acid,6(carboxylic_acid) > 9(carboxylic_acid) > 15(carboxylic_acid) > 18(carboxylic_acid)
OC(=O)[C@H](CS)NCCN[C@@H](CS)C(O)=O,11.14,0:14:6:9:5,carboxylic_acid:carboxylic_acid:amine_secondary:amine_secondary:thiol,"L,L-Ethylenediimino-2,2'-bis(mercaptomethyl)acetic acid (N,N'-Ethylenedi-L-cysteine)",0:14:5:6:9,carboxylic_acid:carboxylic_acid:thiol:amine_secondary:amine_secondary,0(carboxylic_acid) > 14(carboxylic_acid) > 5(thiol) > 6(amine_secondary) > 9(amine_secondary)
OC(=O)[C@H](CS)NCCN[C@@H](CS)C(O)=O,9.88,0:14:6:9:5,carboxylic_acid:carboxylic_acid:amine_secondary:amine_secondary:thiol,"L,L-Ethylenediimino-2,2'-bis(mercaptomethyl)acetic acid (N,N'-Ethylenedi-L-cysteine)",0:14:5:6:9,carboxylic_acid:carboxylic_acid:thiol:amine_secondary:amine_secondary,0(carboxylic_acid) > 14(carboxylic_acid) > 5(thiol) > 6(amine_secondary) > 9(amine_secondary)
OC(=O)[C@H](CS)NCCN[C@@H](CS)C(O)=O,7.91,0:14:6:9:5,carboxylic_acid:carboxylic_acid:amine_secondary:amine_secondary:thiol,"L,L-Ethylenediimino-2,2'-bis(mercaptomethyl)acetic acid (N,N'-Ethylenedi-L-cysteine)",0:14:5:6:9,carboxylic_acid:carboxylic_acid:thiol:amine_secondary:amine_secondary,0(carboxylic_acid) > 14(carboxylic_acid) > 5(thiol) > 6(amine_secondary) > 9(amine_secondary)
OC(=O)[C@H](CS)NCCN[C@@H](CS)C(O)=O,5.4,0:14:6:9:5,carboxylic_acid:carboxylic_acid:amine_secondary:amine_secondary:thiol,"L,L-Ethylenediimino-2,2'-bis(mercaptomethyl)acetic acid (N,N'-Ethylenedi-L-cysteine)",0:14:5:6:9,carboxylic_acid:carboxylic_acid:thiol:amine_secondary:amine_secondary,0(carboxylic_acid) > 14(carboxylic_acid) > 5(thiol) > 6(amine_secondary) > 9(amine_secondary)
OC(=O)[C@H](CS)NCCN[C@@H](CS)C(O)=O,1.7,0:14:6:9:5,carboxylic_acid:carboxylic_acid:amine_secondary:amine_secondary:thiol,"L,L-Ethylenediimino-2,2'-bis(mercaptomethyl)acetic acid (N,N'-Ethylenedi-L-cysteine)",0:14:5:6:9,carboxylic_acid:carboxylic_acid:thiol:amine_secondary:amine_secondary,0(carboxylic_acid) > 14(carboxylic_acid) > 5(thiol) > 6(amine_secondary) > 9(amine_secondary)
OC(CN(CC(O)=O)CC(O)=O)c1ccccc1,8.43,6:10,carboxylic_acid:carboxylic_acid,N-(2-Hydroxy-2-phenylethyl)iminodiacetic acid,6:10,carboxylic_acid:carboxylic_acid,6(carboxylic_acid) > 10(carboxylic_acid)
OC(CN(CC(O)=O)CC(O)=O)c1ccccc1,3.17,6:10,carboxylic_acid:carboxylic_acid,N-(2-Hydroxy-2-phenylethyl)iminodiacetic acid,6:10,carboxylic_acid:carboxylic_acid,6(carboxylic_acid) > 10(carboxylic_acid)
OCCN(CCC(O)=O)CCC(O)=O,8.91,7:12,carboxylic_acid:carboxylic_acid,N-(2-Hydroxyethyl)iminodi-3-propanoic acid,7:12,carboxylic_acid:carboxylic_acid,7(carboxylic_acid) > 12(carboxylic_acid)
OCCN(CCC(O)=O)CCC(O)=O,3.93,7:12,carboxylic_acid:carboxylic_acid,N-(2-Hydroxyethyl)iminodi-3-propanoic acid,7:12,carboxylic_acid:carboxylic_acid,7(carboxylic_acid) > 12(carboxylic_acid)
OCC(CO)N(CC(O)=O)CC(O)=O,8.58,8:12,carboxylic_acid:carboxylic_acid,"N-(1,3-Dihydroxy-2-propyl)iminodiacetic acid",8:12,carboxylic_acid:carboxylic_acid,8(carboxylic_acid) > 12(carboxylic_acid)
OCC(CO)N(CC(O)=O)CC(O)=O,2.65,8:12,carboxylic_acid:carboxylic_acid,"N-(1,3-Dihydroxy-2-propyl)iminodiacetic acid",8:12,carboxylic_acid:carboxylic_acid,8(carboxylic_acid) > 12(carboxylic_acid)
CC(CO)(CO)N(CC(O)=O)CC(O)=O,8.45,9:13,carboxylic_acid:carboxylic_acid,"N-(1,3-Dihydroxy-2-methyl-2-propyl)iminodiacetic acid",9:13,carboxylic_acid:carboxylic_acid,9(carboxylic_acid) > 13(carboxylic_acid)
CC(CO)(CO)N(CC(O)=O)CC(O)=O,2.78,9:13,carboxylic_acid:carboxylic_acid,"N-(1,3-Dihydroxy-2-methyl-2-propyl)iminodiacetic acid",9:13,carboxylic_acid:carboxylic_acid,9(carboxylic_acid) > 13(carboxylic_acid)
CCC(CO)(CO)N(CC(O)=O)CC(O)=O,8.51,10:14,carboxylic_acid:carboxylic_acid,"N-(1,3-Dihydroxy-2-ethyl-2-propyl)iminodiacetic acid",10:14,carboxylic_acid:carboxylic_acid,10(carboxylic_acid) > 14(carboxylic_acid)
CCC(CO)(CO)N(CC(O)=O)CC(O)=O,3.01,10:14,carboxylic_acid:carboxylic_acid,"N-(1,3-Dihydroxy-2-ethyl-2-propyl)iminodiacetic acid",10:14,carboxylic_acid:carboxylic_acid,10(carboxylic_acid) > 14(carboxylic_acid)
OCC(C(O)c1ccccc1)N(CC(O)=O)CC(O)=O,8.64,14:18,carboxylic_acid:carboxylic_acid,"N-(1,3-Dihydroxy-1-phenyl-2-propyl)iminodiacetic acid",14:18,carboxylic_acid:carboxylic_acid,14(carboxylic_acid) > 18(carboxylic_acid)
OCC(C(O)c1ccccc1)N(CC(O)=O)CC(O)=O,2.52,14:18,carboxylic_acid:carboxylic_acid,"N-(1,3-Dihydroxy-1-phenyl-2-propyl)iminodiacetic acid",14:18,carboxylic_acid:carboxylic_acid,14(carboxylic_acid) > 18(carboxylic_acid)
COCCN(CC(O)=O)CC(O)=O,8.95,7:11,carboxylic_acid:carboxylic_acid,N-(2-Methoxyethyl)iminodiacetic acid,7:11,carboxylic_acid:carboxylic_acid,7(carboxylic_acid) > 11(carboxylic_acid)
COCCN(CC(O)=O)CC(O)=O,8.96,7:11,carboxylic_acid:carboxylic_acid,N-(2-Methoxyethyl)iminodiacetic acid,7:11,carboxylic_acid:carboxylic_acid,7(carboxylic_acid) > 11(carboxylic_acid)
COCCN(CC(O)=O)CC(O)=O,9.25,7:11,carboxylic_acid:carboxylic_acid,N-(2-Methoxyethyl)iminodiacetic acid,7:11,carboxylic_acid:carboxylic_acid,7(carboxylic_acid) > 11(carboxylic_acid)
COCCN(CC(O)=O)CC(O)=O,2.18,7:11,carboxylic_acid:carboxylic_acid,N-(2-Methoxyethyl)iminodiacetic acid,7:11,carboxylic_acid:carboxylic_acid,7(carboxylic_acid) > 11(carboxylic_acid)
COCCN(CC(O)=O)CC(O)=O,2.2,7:11,carboxylic_acid:carboxylic_acid,N-(2-Methoxyethyl)iminodiacetic acid,7:11,carboxylic_acid:carboxylic_acid,7(carboxylic_acid) > 11(carboxylic_acid)
COCCN(CC(O)=O)CC(O)=O,2.48,7:11,carboxylic_acid:carboxylic_acid,N-(2-Methoxyethyl)iminodiacetic acid,7:11,carboxylic_acid:carboxylic_acid,7(carboxylic_acid) > 11(carboxylic_acid)
COCCCN(CC(O)=O)CC(O)=O,10.02,8:12,carboxylic_acid:carboxylic_acid,N-(3-Methoxypropyl)iminodiacetic acid,8:12,carboxylic_acid:carboxylic_acid,8(carboxylic_acid) > 12(carboxylic_acid)
COCCCN(CC(O)=O)CC(O)=O,2.61,8:12,carboxylic_acid:carboxylic_acid,N-(3-Methoxypropyl)iminodiacetic acid,8:12,carboxylic_acid:carboxylic_acid,8(carboxylic_acid) > 12(carboxylic_acid)
OC(=O)CN(CC1CCCCO1)CC(O)=O,9.04,0:14,carboxylic_acid:carboxylic_acid,N-(2-Tetrahydropyranylmethyl)iminodiacetic acid,0:14,carboxylic_acid:carboxylic_acid,0(carboxylic_acid) > 14(carboxylic_acid)
OC(=O)CN(CC1CCCCO1)CC(O)=O,1.9,0:14,carboxylic_acid:carboxylic_acid,N-(2-Tetrahydropyranylmethyl)iminodiacetic acid,0:14,carboxylic_acid:carboxylic_acid,0(carboxylic_acid) > 14(carboxylic_acid)
OC(=O)CN(CC(O)=O)Cc1occc1,8.4,0:7,carboxylic_acid:carboxylic_acid,N-(2-Furylmethyl)iminodiacetic acid,0:7,carboxylic_acid:carboxylic_acid,0(carboxylic_acid) > 7(carboxylic_acid)
OC(=O)CN(CC(O)=O)Cc1occc1,2.17,0:7,carboxylic_acid:carboxylic_acid,N-(2-Furylmethyl)iminodiacetic acid,0:7,carboxylic_acid:carboxylic_acid,0(carboxylic_acid) > 7(carboxylic_acid)
CC(=O)CN(CC(O)=O)CC(O)=O,7.71,7:11,carboxylic_acid:carboxylic_acid,N-(2-Oxopropyl)iminodiacetic acid,7:11,carboxylic_acid:carboxylic_acid,7(carboxylic_acid) > 11(carboxylic_acid)
CC(=O)CN(CC(O)=O)CC(O)=O,2.62,7:11,carboxylic_acid:carboxylic_acid,N-(2-Oxopropyl)iminodiacetic acid,7:11,carboxylic_acid:carboxylic_acid,7(carboxylic_acid) > 11(carboxylic_acid)