SMILES,pKa,Dissociable_Atoms,Functional_Group,Name,Dissociable_Atoms_Ordered,Functional_Group_Ordered,Dissociation_Order
OC(=O)CCCCCCCC(O)=O,4.99,0:11,carboxylic_acid:carboxylic_acid,Nonanedioic acid (Azelaic acid),0:11,carboxylic_acid:carboxylic_acid,0(carboxylic_acid) > 11(carboxylic_acid)
OC(=O)CCCCCCCC(O)=O,5.05,0:11,carboxylic_acid:carboxylic_acid,Nonanedioic acid (Azelaic acid),0:11,carboxylic_acid:carboxylic_acid,0(carboxylic_acid) > 11(carboxylic_acid)
OC(=O)CCCCCCCC(O)=O,5.12,0:11,carboxylic_acid:carboxylic_acid,Nonanedioic acid (Azelaic acid),0:11,carboxylic_acid:carboxylic_acid,0(carboxylic_acid) > 11(carboxylic_acid)
OC(=O)CCCCCCCC(O)=O,5.22,0:11,carboxylic_acid:carboxylic_acid,Nonanedioic acid (Azelaic acid),0:11,carboxylic_acid:carboxylic_acid,0(carboxylic_acid) > 11(carboxylic_acid)
OC(=O)CCCCCCCC(O)=O,5.31,0:11,carboxylic_acid:carboxylic_acid,Nonanedioic acid (Azelaic acid),0:11,carboxylic_acid:carboxylic_acid,0(carboxylic_acid) > 11(carboxylic_acid)
OC(=O)CCCCCCCC(O)=O,5.42,0:11,carboxylic_acid:carboxylic_acid,Nonanedioic acid (Azelaic acid),0:11,carboxylic_acid:carboxylic_acid,0(carboxylic_acid) > 11(carboxylic_acid)
OC(=O)CCCCCCCC(O)=O,4.35,0:11,carboxylic_acid:carboxylic_acid,Nonanedioic acid (Azelaic acid),0:11,carboxylic_acid:carboxylic_acid,0(carboxylic_acid) > 11(carboxylic_acid)
OC(=O)CCCCCCCC(O)=O,4.3,0:11,carboxylic_acid:carboxylic_acid,Nonanedioic acid (Azelaic acid),0:11,carboxylic_acid:carboxylic_acid,0(carboxylic_acid) > 11(carboxylic_acid)
OC(=O)CCCCCCCC(O)=O,4.33,0:11,carboxylic_acid:carboxylic_acid,Nonanedioic acid (Azelaic acid),0:11,carboxylic_acid:carboxylic_acid,0(carboxylic_acid) > 11(carboxylic_acid)
OC(=O)CCCCCCCC(O)=O,4.43,0:11,carboxylic_acid:carboxylic_acid,Nonanedioic acid (Azelaic acid),0:11,carboxylic_acid:carboxylic_acid,0(carboxylic_acid) > 11(carboxylic_acid)
OC(=O)CCCCCCCC(O)=O,4.48,0:11,carboxylic_acid:carboxylic_acid,Nonanedioic acid (Azelaic acid),0:11,carboxylic_acid:carboxylic_acid,0(carboxylic_acid) > 11(carboxylic_acid)
OC(=O)CCCCCCCC(O)=O,4.6,0:11,carboxylic_acid:carboxylic_acid,Nonanedioic acid (Azelaic acid),0:11,carboxylic_acid:carboxylic_acid,0(carboxylic_acid) > 11(carboxylic_acid)
OC(=O)CCCCCCCC(O)=O,4.66,0:11,carboxylic_acid:carboxylic_acid,Nonanedioic acid (Azelaic acid),0:11,carboxylic_acid:carboxylic_acid,0(carboxylic_acid) > 11(carboxylic_acid)
OC(=O)CCCCCCCC(O)=O,4.549,0:11,carboxylic_acid:carboxylic_acid,Nonanedioic acid (Azelaic acid),0:11,carboxylic_acid:carboxylic_acid,0(carboxylic_acid) > 11(carboxylic_acid)
OC(=O)c1ccccc1C(O)=O,4.92,1:9,carboxylic_acid:carboxylic_acid,"Benzene-1,2-dicarboxylic acid (Phthalic acid)",1:9,carboxylic_acid:carboxylic_acid,1(carboxylic_acid) > 9(carboxylic_acid)
OC(=O)c1ccccc1C(O)=O,5.08,1:9,carboxylic_acid:carboxylic_acid,"Benzene-1,2-dicarboxylic acid (Phthalic acid)",1:9,carboxylic_acid:carboxylic_acid,1(carboxylic_acid) > 9(carboxylic_acid)
OC(=O)c1ccccc1C(O)=O,4.94,1:9,carboxylic_acid:carboxylic_acid,"Benzene-1,2-dicarboxylic acid (Phthalic acid)",1:9,carboxylic_acid:carboxylic_acid,1(carboxylic_acid) > 9(carboxylic_acid)
OC(=O)c1ccccc1C(O)=O,5.09,1:9,carboxylic_acid:carboxylic_acid,"Benzene-1,2-dicarboxylic acid (Phthalic acid)",1:9,carboxylic_acid:carboxylic_acid,1(carboxylic_acid) > 9(carboxylic_acid)
OC(=O)c1ccccc1C(O)=O,4.65,1:9,carboxylic_acid:carboxylic_acid,"Benzene-1,2-dicarboxylic acid (Phthalic acid)",1:9,carboxylic_acid:carboxylic_acid,1(carboxylic_acid) > 9(carboxylic_acid)
OC(=O)c1ccccc1C(O)=O,4.72,1:9,carboxylic_acid:carboxylic_acid,"Benzene-1,2-dicarboxylic acid (Phthalic acid)",1:9,carboxylic_acid:carboxylic_acid,1(carboxylic_acid) > 9(carboxylic_acid)
OC(=O)c1ccccc1C(O)=O,5.21,1:9,carboxylic_acid:carboxylic_acid,"Benzene-1,2-dicarboxylic acid (Phthalic acid)",1:9,carboxylic_acid:carboxylic_acid,1(carboxylic_acid) > 9(carboxylic_acid)
OC(=O)c1ccccc1C(O)=O,5.48,1:9,carboxylic_acid:carboxylic_acid,"Benzene-1,2-dicarboxylic acid (Phthalic acid)",1:9,carboxylic_acid:carboxylic_acid,1(carboxylic_acid) > 9(carboxylic_acid)
OC(=O)c1ccccc1C(O)=O,4.73,1:9,carboxylic_acid:carboxylic_acid,"Benzene-1,2-dicarboxylic acid (Phthalic acid)",1:9,carboxylic_acid:carboxylic_acid,1(carboxylic_acid) > 9(carboxylic_acid)
OC(=O)c1ccccc1C(O)=O,4.87,1:9,carboxylic_acid:carboxylic_acid,"Benzene-1,2-dicarboxylic acid (Phthalic acid)",1:9,carboxylic_acid:carboxylic_acid,1(carboxylic_acid) > 9(carboxylic_acid)
OC(=O)c1ccccc1C(O)=O,5.41,1:9,carboxylic_acid:carboxylic_acid,"Benzene-1,2-dicarboxylic acid (Phthalic acid)",1:9,carboxylic_acid:carboxylic_acid,1(carboxylic_acid) > 9(carboxylic_acid)
OC(=O)c1ccccc1C(O)=O,5.411,1:9,carboxylic_acid:carboxylic_acid,"Benzene-1,2-dicarboxylic acid (Phthalic acid)",1:9,carboxylic_acid:carboxylic_acid,1(carboxylic_acid) > 9(carboxylic_acid)
OC(=O)c1ccccc1C(O)=O,5.442,1:9,carboxylic_acid:carboxylic_acid,"Benzene-1,2-dicarboxylic acid (Phthalic acid)",1:9,carboxylic_acid:carboxylic_acid,1(carboxylic_acid) > 9(carboxylic_acid)
OC(=O)c1ccccc1C(O)=O,2.76,1:9,carboxylic_acid:carboxylic_acid,"Benzene-1,2-dicarboxylic acid (Phthalic acid)",1:9,carboxylic_acid:carboxylic_acid,1(carboxylic_acid) > 9(carboxylic_acid)
OC(=O)c1ccccc1C(O)=O,2.77,1:9,carboxylic_acid:carboxylic_acid,"Benzene-1,2-dicarboxylic acid (Phthalic acid)",1:9,carboxylic_acid:carboxylic_acid,1(carboxylic_acid) > 9(carboxylic_acid)
OC(=O)c1ccccc1C(O)=O,2.66,1:9,carboxylic_acid:carboxylic_acid,"Benzene-1,2-dicarboxylic acid (Phthalic acid)",1:9,carboxylic_acid:carboxylic_acid,1(carboxylic_acid) > 9(carboxylic_acid)
OC(=O)c1ccccc1C(O)=O,2.86,1:9,carboxylic_acid:carboxylic_acid,"Benzene-1,2-dicarboxylic acid (Phthalic acid)",1:9,carboxylic_acid:carboxylic_acid,1(carboxylic_acid) > 9(carboxylic_acid)
OC(=O)c1ccccc1C(O)=O,3.0,1:9,carboxylic_acid:carboxylic_acid,"Benzene-1,2-dicarboxylic acid (Phthalic acid)",1:9,carboxylic_acid:carboxylic_acid,1(carboxylic_acid) > 9(carboxylic_acid)
OC(=O)c1ccccc1C(O)=O,2.8,1:9,carboxylic_acid:carboxylic_acid,"Benzene-1,2-dicarboxylic acid (Phthalic acid)",1:9,carboxylic_acid:carboxylic_acid,1(carboxylic_acid) > 9(carboxylic_acid)
OC(=O)c1ccccc1C(O)=O,2.98,1:9,carboxylic_acid:carboxylic_acid,"Benzene-1,2-dicarboxylic acid (Phthalic acid)",1:9,carboxylic_acid:carboxylic_acid,1(carboxylic_acid) > 9(carboxylic_acid)
OC(=O)c1ccccc1C(O)=O,2.931,1:9,carboxylic_acid:carboxylic_acid,"Benzene-1,2-dicarboxylic acid (Phthalic acid)",1:9,carboxylic_acid:carboxylic_acid,1(carboxylic_acid) > 9(carboxylic_acid)
OC(=O)c1ccccc1C(O)=O,2.95,1:9,carboxylic_acid:carboxylic_acid,"Benzene-1,2-dicarboxylic acid (Phthalic acid)",1:9,carboxylic_acid:carboxylic_acid,1(carboxylic_acid) > 9(carboxylic_acid)
OC(=O)c1ccccc1C(O)=O,2.978,1:9,carboxylic_acid:carboxylic_acid,"Benzene-1,2-dicarboxylic acid (Phthalic acid)",1:9,carboxylic_acid:carboxylic_acid,1(carboxylic_acid) > 9(carboxylic_acid)
OC(=O)c1cccc(c1)C(O)=O,4.38,0:10,carboxylic_acid:carboxylic_acid,"Benzene-1,3-dicarboxylic acid (Isophthalic acid)",0:10,carboxylic_acid:carboxylic_acid,0(carboxylic_acid) > 10(carboxylic_acid)
OC(=O)c1cccc(c1)C(O)=O,4.16,0:10,carboxylic_acid:carboxylic_acid,"Benzene-1,3-dicarboxylic acid (Isophthalic acid)",0:10,carboxylic_acid:carboxylic_acid,0(carboxylic_acid) > 10(carboxylic_acid)
OC(=O)c1cccc(c1)C(O)=O,4.5,0:10,carboxylic_acid:carboxylic_acid,"Benzene-1,3-dicarboxylic acid (Isophthalic acid)",0:10,carboxylic_acid:carboxylic_acid,0(carboxylic_acid) > 10(carboxylic_acid)
OC(=O)c1cccc(c1)C(O)=O,3.3,0:10,carboxylic_acid:carboxylic_acid,"Benzene-1,3-dicarboxylic acid (Isophthalic acid)",0:10,carboxylic_acid:carboxylic_acid,0(carboxylic_acid) > 10(carboxylic_acid)
OC(=O)c1cccc(c1)C(O)=O,3.41,0:10,carboxylic_acid:carboxylic_acid,"Benzene-1,3-dicarboxylic acid (Isophthalic acid)",0:10,carboxylic_acid:carboxylic_acid,0(carboxylic_acid) > 10(carboxylic_acid)
OC(=O)c1cccc(c1)C(O)=O,3.5,0:10,carboxylic_acid:carboxylic_acid,"Benzene-1,3-dicarboxylic acid (Isophthalic acid)",0:10,carboxylic_acid:carboxylic_acid,0(carboxylic_acid) > 10(carboxylic_acid)
OC(=O)c1ccc(cc1)C(O)=O,4.15,0:10,carboxylic_acid:carboxylic_acid,"Benzene-1,4-dicarboxylic acid (Terephthalic acid)",0:10,carboxylic_acid:carboxylic_acid,0(carboxylic_acid) > 10(carboxylic_acid)
OC(=O)c1ccc(cc1)C(O)=O,4.34,0:10,carboxylic_acid:carboxylic_acid,"Benzene-1,4-dicarboxylic acid (Terephthalic acid)",0:10,carboxylic_acid:carboxylic_acid,0(carboxylic_acid) > 10(carboxylic_acid)
OC(=O)c1ccc(cc1)C(O)=O,4.48,0:10,carboxylic_acid:carboxylic_acid,"Benzene-1,4-dicarboxylic acid (Terephthalic acid)",0:10,carboxylic_acid:carboxylic_acid,0(carboxylic_acid) > 10(carboxylic_acid)
OC(=O)c1ccc(cc1)C(O)=O,3.38,0:10,carboxylic_acid:carboxylic_acid,"Benzene-1,4-dicarboxylic acid (Terephthalic acid)",0:10,carboxylic_acid:carboxylic_acid,0(carboxylic_acid) > 10(carboxylic_acid)
OC(=O)c1ccc(cc1)C(O)=O,3.58,0:10,carboxylic_acid:carboxylic_acid,"Benzene-1,4-dicarboxylic acid (Terephthalic acid)",0:10,carboxylic_acid:carboxylic_acid,0(carboxylic_acid) > 10(carboxylic_acid)
Cc1ccc(C(O)=O)c(c1)C(O)=O,5.26,6:11,carboxylic_acid:carboxylic_acid,"4-Methylbenzene-1,2-dicarboxylic acid (4-Methylphthalic acid)",6:11,carboxylic_acid:carboxylic_acid,6(carboxylic_acid) > 11(carboxylic_acid)
Cc1ccc(C(O)=O)c(c1)C(O)=O,5.68,6:11,carboxylic_acid:carboxylic_acid,"4-Methylbenzene-1,2-dicarboxylic acid (4-Methylphthalic acid)",6:11,carboxylic_acid:carboxylic_acid,6(carboxylic_acid) > 11(carboxylic_acid)
Cc1ccc(C(O)=O)c(c1)C(O)=O,3.04,6:11,carboxylic_acid:carboxylic_acid,"4-Methylbenzene-1,2-dicarboxylic acid (4-Methylphthalic acid)",6:11,carboxylic_acid:carboxylic_acid,6(carboxylic_acid) > 11(carboxylic_acid)
Cc1ccc(C(O)=O)c(c1)C(O)=O,3.06,6:11,carboxylic_acid:carboxylic_acid,"4-Methylbenzene-1,2-dicarboxylic acid (4-Methylphthalic acid)",6:11,carboxylic_acid:carboxylic_acid,6(carboxylic_acid) > 11(carboxylic_acid)
OC(=O)c1cccc(Br)c1C(O)=O,4.35,0:11,carboxylic_acid:carboxylic_acid,"3-Bromobenzene-1,2-dicarboxylic acid (3-Bromophthalic acid)",0:11,carboxylic_acid:carboxylic_acid,0(carboxylic_acid) > 11(carboxylic_acid)
OC(=O)c1cccc(Br)c1C(O)=O,2.37,0:11,carboxylic_acid:carboxylic_acid,"3-Bromobenzene-1,2-dicarboxylic acid (3-Bromophthalic acid)",0:11,carboxylic_acid:carboxylic_acid,0(carboxylic_acid) > 11(carboxylic_acid)
OC(=O)c1ccc(Br)cc1C(O)=O,4.6,0:11,carboxylic_acid:carboxylic_acid,"4-Bromobenzene-1,2-dicarboxylic acid (4-Bromophthalic acid)",0:11,carboxylic_acid:carboxylic_acid,0(carboxylic_acid) > 11(carboxylic_acid)
OC(=O)c1ccc(Br)cc1C(O)=O,2.5,0:11,carboxylic_acid:carboxylic_acid,"4-Bromobenzene-1,2-dicarboxylic acid (4-Bromophthalic acid)",0:11,carboxylic_acid:carboxylic_acid,0(carboxylic_acid) > 11(carboxylic_acid)
OC(=O)c1cccc(c1C(O)=O)[N+]([O-])=O,3.93,0:10,carboxylic_acid:carboxylic_acid,"3-Nitrobenzene-1,2-dicarboxylic acid (3-Nitrophthalic acid)",0:10,carboxylic_acid:carboxylic_acid,0(carboxylic_acid) > 10(carboxylic_acid)
OC(=O)c1cccc(c1C(O)=O)[N+]([O-])=O,4.48,0:10,carboxylic_acid:carboxylic_acid,"3-Nitrobenzene-1,2-dicarboxylic acid (3-Nitrophthalic acid)",0:10,carboxylic_acid:carboxylic_acid,0(carboxylic_acid) > 10(carboxylic_acid)
OC(=O)c1cccc(c1C(O)=O)[N+]([O-])=O,2.11,0:10,carboxylic_acid:carboxylic_acid,"3-Nitrobenzene-1,2-dicarboxylic acid (3-Nitrophthalic acid)",0:10,carboxylic_acid:carboxylic_acid,0(carboxylic_acid) > 10(carboxylic_acid)
OC(=O)c1ccc(cc1C(O)=O)[N+]([O-])=O,4.12,0:10,carboxylic_acid:carboxylic_acid,"4-Nitrobenzene-1,2-dicarboxylic acid (4-Nitrophthalic acid)",0:10,carboxylic_acid:carboxylic_acid,0(carboxylic_acid) > 10(carboxylic_acid)
OC(=O)c1ccc(cc1C(O)=O)[N+]([O-])=O,4.44,0:10,carboxylic_acid:carboxylic_acid,"4-Nitrobenzene-1,2-dicarboxylic acid (4-Nitrophthalic acid)",0:10,carboxylic_acid:carboxylic_acid,0(carboxylic_acid) > 10(carboxylic_acid)
OC(=O)c1ccc(cc1C(O)=O)[N+]([O-])=O,2.02,0:10,carboxylic_acid:carboxylic_acid,"4-Nitrobenzene-1,2-dicarboxylic acid (4-Nitrophthalic acid)",0:10,carboxylic_acid:carboxylic_acid,0(carboxylic_acid) > 10(carboxylic_acid)
CC(=O)Oc1c(cccc1C(O)=O)C(O)=O,3.8,14:11,carboxylic_acid:carboxylic_acid,"2-Acetoxybenzene-1,3-dicarboxylic acid (2-Acetoxyisophthalic acid)",14:11,carboxylic_acid:carboxylic_acid,14(carboxylic_acid) > 11(carboxylic_acid)
CC(=O)Oc1c(cccc1C(O)=O)C(O)=O,2.85,14:11,carboxylic_acid:carboxylic_acid,"2-Acetoxybenzene-1,3-dicarboxylic acid (2-Acetoxyisophthalic acid)",14:11,carboxylic_acid:carboxylic_acid,14(carboxylic_acid) > 11(carboxylic_acid)
CC(=O)N[C@@H](CC(O)=O)C(O)=O,4.49,7:10,carboxylic_acid:carboxylic_acid,2-(Acetylamino)butanedioic acid (N-Acetylaspartic acid),7:10,carboxylic_acid:carboxylic_acid,7(carboxylic_acid) > 10(carboxylic_acid)
CC(=O)N[C@@H](CC(O)=O)C(O)=O,3.04,7:10,carboxylic_acid:carboxylic_acid,2-(Acetylamino)butanedioic acid (N-Acetylaspartic acid),7:10,carboxylic_acid:carboxylic_acid,7(carboxylic_acid) > 10(carboxylic_acid)
CC(=O)N[C@@H](CCC(O)=O)C(O)=O,4.6,8:11,carboxylic_acid:carboxylic_acid,2-(Acetylamino)pentanedioic acid (N-Acetylglutamic acid),8:11,carboxylic_acid:carboxylic_acid,8(carboxylic_acid) > 11(carboxylic_acid)
CC(=O)N[C@@H](CCC(O)=O)C(O)=O,3.29,8:11,carboxylic_acid:carboxylic_acid,2-(Acetylamino)pentanedioic acid (N-Acetylglutamic acid),8:11,carboxylic_acid:carboxylic_acid,8(carboxylic_acid) > 11(carboxylic_acid)
C[C@@](CCC(O)=O)(NC(=O)c1ccccc1)C(O)=O,4.63,5:17,carboxylic_acid:carboxylic_acid,"3-(Benzoylamino)butane-1,3-dicarboxylic acid (N-Benzoyl-2-methylglutamic acid)",5:17,carboxylic_acid:carboxylic_acid,5(carboxylic_acid) > 17(carboxylic_acid)
C[C@@](CCC(O)=O)(NC(=O)c1ccccc1)C(O)=O,3.51,5:17,carboxylic_acid:carboxylic_acid,"3-(Benzoylamino)butane-1,3-dicarboxylic acid (N-Benzoyl-2-methylglutamic acid)",5:17,carboxylic_acid:carboxylic_acid,5(carboxylic_acid) > 17(carboxylic_acid)
OC(=O)COCC(O)=O,3.94,0:7,carboxylic_acid:carboxylic_acid,Oxydiacetic acid (Diglycolic acid),0:7,carboxylic_acid:carboxylic_acid,0(carboxylic_acid) > 7(carboxylic_acid)
OC(=O)COCC(O)=O,4.0,0:7,carboxylic_acid:carboxylic_acid,Oxydiacetic acid (Diglycolic acid),0:7,carboxylic_acid:carboxylic_acid,0(carboxylic_acid) > 7(carboxylic_acid)
OC(=O)COCC(O)=O,4.02,0:7,carboxylic_acid:carboxylic_acid,Oxydiacetic acid (Diglycolic acid),0:7,carboxylic_acid:carboxylic_acid,0(carboxylic_acid) > 7(carboxylic_acid)
OC(=O)COCC(O)=O,3.76,0:7,carboxylic_acid:carboxylic_acid,Oxydiacetic acid (Diglycolic acid),0:7,carboxylic_acid:carboxylic_acid,0(carboxylic_acid) > 7(carboxylic_acid)
OC(=O)COCC(O)=O,4.36,0:7,carboxylic_acid:carboxylic_acid,Oxydiacetic acid (Diglycolic acid),0:7,carboxylic_acid:carboxylic_acid,0(carboxylic_acid) > 7(carboxylic_acid)
OC(=O)COCC(O)=O,2.82,0:7,carboxylic_acid:carboxylic_acid,Oxydiacetic acid (Diglycolic acid),0:7,carboxylic_acid:carboxylic_acid,0(carboxylic_acid) > 7(carboxylic_acid)
OC(=O)COCC(O)=O,2.83,0:7,carboxylic_acid:carboxylic_acid,Oxydiacetic acid (Diglycolic acid),0:7,carboxylic_acid:carboxylic_acid,0(carboxylic_acid) > 7(carboxylic_acid)
OC(=O)COCC(O)=O,2.8,0:7,carboxylic_acid:carboxylic_acid,Oxydiacetic acid (Diglycolic acid),0:7,carboxylic_acid:carboxylic_acid,0(carboxylic_acid) > 7(carboxylic_acid)
OC(=O)COCC(O)=O,2.81,0:7,carboxylic_acid:carboxylic_acid,Oxydiacetic acid (Diglycolic acid),0:7,carboxylic_acid:carboxylic_acid,0(carboxylic_acid) > 7(carboxylic_acid)
OC(=O)COCC(O)=O,3.01,0:7,carboxylic_acid:carboxylic_acid,Oxydiacetic acid (Diglycolic acid),0:7,carboxylic_acid:carboxylic_acid,0(carboxylic_acid) > 7(carboxylic_acid)
OC(C(O)=O)C(O)=O,4.24,3:6,carboxylic_acid:carboxylic_acid,Hydroxypropanedioic acid (Hydroxymalonic acid)(Tartronic acid),3:6,carboxylic_acid:carboxylic_acid,3(carboxylic_acid) > 6(carboxylic_acid)
OC(C(O)=O)C(O)=O,2.02,3:6,carboxylic_acid:carboxylic_acid,Hydroxypropanedioic acid (Hydroxymalonic acid)(Tartronic acid),3:6,carboxylic_acid:carboxylic_acid,3(carboxylic_acid) > 6(carboxylic_acid)
OC(CC(O)=O)C(O)=O,4.68,4:7,carboxylic_acid:carboxylic_acid,L-Hydroxybutanedioic acid (Hydroxysuccinic acid)(Malic acid),4:7,carboxylic_acid:carboxylic_acid,4(carboxylic_acid) > 7(carboxylic_acid)
OC(CC(O)=O)C(O)=O,4.75,4:7,carboxylic_acid:carboxylic_acid,L-Hydroxybutanedioic acid (Hydroxysuccinic acid)(Malic acid),4:7,carboxylic_acid:carboxylic_acid,4(carboxylic_acid) > 7(carboxylic_acid)
OC(CC(O)=O)C(O)=O,4.76,4:7,carboxylic_acid:carboxylic_acid,L-Hydroxybutanedioic acid (Hydroxysuccinic acid)(Malic acid),4:7,carboxylic_acid:carboxylic_acid,4(carboxylic_acid) > 7(carboxylic_acid)
OC(CC(O)=O)C(O)=O,4.52,4:7,carboxylic_acid:carboxylic_acid,L-Hydroxybutanedioic acid (Hydroxysuccinic acid)(Malic acid),4:7,carboxylic_acid:carboxylic_acid,4(carboxylic_acid) > 7(carboxylic_acid)
OC(CC(O)=O)C(O)=O,4.45,4:7,carboxylic_acid:carboxylic_acid,L-Hydroxybutanedioic acid (Hydroxysuccinic acid)(Malic acid),4:7,carboxylic_acid:carboxylic_acid,4(carboxylic_acid) > 7(carboxylic_acid)
OC(CC(O)=O)C(O)=O,4.53,4:7,carboxylic_acid:carboxylic_acid,L-Hydroxybutanedioic acid (Hydroxysuccinic acid)(Malic acid),4:7,carboxylic_acid:carboxylic_acid,4(carboxylic_acid) > 7(carboxylic_acid)
OC(CC(O)=O)C(O)=O,5.097,4:7,carboxylic_acid:carboxylic_acid,L-Hydroxybutanedioic acid (Hydroxysuccinic acid)(Malic acid),4:7,carboxylic_acid:carboxylic_acid,4(carboxylic_acid) > 7(carboxylic_acid)
OC(CC(O)=O)C(O)=O,3.24,4:7,carboxylic_acid:carboxylic_acid,L-Hydroxybutanedioic acid (Hydroxysuccinic acid)(Malic acid),4:7,carboxylic_acid:carboxylic_acid,4(carboxylic_acid) > 7(carboxylic_acid)
OC(CC(O)=O)C(O)=O,3.29,4:7,carboxylic_acid:carboxylic_acid,L-Hydroxybutanedioic acid (Hydroxysuccinic acid)(Malic acid),4:7,carboxylic_acid:carboxylic_acid,4(carboxylic_acid) > 7(carboxylic_acid)
OC(CC(O)=O)C(O)=O,3.2,4:7,carboxylic_acid:carboxylic_acid,L-Hydroxybutanedioic acid (Hydroxysuccinic acid)(Malic acid),4:7,carboxylic_acid:carboxylic_acid,4(carboxylic_acid) > 7(carboxylic_acid)
OC(CC(O)=O)C(O)=O,3.27,4:7,carboxylic_acid:carboxylic_acid,L-Hydroxybutanedioic acid (Hydroxysuccinic acid)(Malic acid),4:7,carboxylic_acid:carboxylic_acid,4(carboxylic_acid) > 7(carboxylic_acid)
OC(CC(O)=O)C(O)=O,3.15,4:7,carboxylic_acid:carboxylic_acid,L-Hydroxybutanedioic acid (Hydroxysuccinic acid)(Malic acid),4:7,carboxylic_acid:carboxylic_acid,4(carboxylic_acid) > 7(carboxylic_acid)
OC(CC(O)=O)C(O)=O,3.19,4:7,carboxylic_acid:carboxylic_acid,L-Hydroxybutanedioic acid (Hydroxysuccinic acid)(Malic acid),4:7,carboxylic_acid:carboxylic_acid,4(carboxylic_acid) > 7(carboxylic_acid)
OC(CC(O)=O)C(O)=O,3.23,4:7,carboxylic_acid:carboxylic_acid,L-Hydroxybutanedioic acid (Hydroxysuccinic acid)(Malic acid),4:7,carboxylic_acid:carboxylic_acid,4(carboxylic_acid) > 7(carboxylic_acid)
OC(CC(O)=O)C(O)=O,3.459,4:7,carboxylic_acid:carboxylic_acid,L-Hydroxybutanedioic acid (Hydroxysuccinic acid)(Malic acid),4:7,carboxylic_acid:carboxylic_acid,4(carboxylic_acid) > 7(carboxylic_acid)
CC(O)(CC(O)=O)C(O)=O,4.83,5:8,carboxylic_acid:carboxylic_acid,DL-2-Hydroxy-2-methylbutanedioic acid (2-Hydroxy-2-methylsuccinic acid) (Citramalic acid),5:8,carboxylic_acid:carboxylic_acid,5(carboxylic_acid) > 8(carboxylic_acid)
CC(O)(CC(O)=O)C(O)=O,3.24,5:8,carboxylic_acid:carboxylic_acid,DL-2-Hydroxy-2-methylbutanedioic acid (2-Hydroxy-2-methylsuccinic acid) (Citramalic acid),5:8,carboxylic_acid:carboxylic_acid,5(carboxylic_acid) > 8(carboxylic_acid)
O[C@@H]([C@H](O)C(O)=O)C(O)=O,3.97,5:8,carboxylic_acid:carboxylic_acid,"D-2,3-Dihydroxybutanedioic acid (D-Tartaric acid)",5:8,carboxylic_acid:carboxylic_acid,5(carboxylic_acid) > 8(carboxylic_acid)
O[C@@H]([C@H](O)C(O)=O)C(O)=O,4.0,5:8,carboxylic_acid:carboxylic_acid,"D-2,3-Dihydroxybutanedioic acid (D-Tartaric acid)",5:8,carboxylic_acid:carboxylic_acid,5(carboxylic_acid) > 8(carboxylic_acid)
O[C@@H]([C@H](O)C(O)=O)C(O)=O,3.96,5:8,carboxylic_acid:carboxylic_acid,"D-2,3-Dihydroxybutanedioic acid (D-Tartaric acid)",5:8,carboxylic_acid:carboxylic_acid,5(carboxylic_acid) > 8(carboxylic_acid)
O[C@@H]([C@H](O)C(O)=O)C(O)=O,3.7,5:8,carboxylic_acid:carboxylic_acid,"D-2,3-Dihydroxybutanedioic acid (D-Tartaric acid)",5:8,carboxylic_acid:carboxylic_acid,5(carboxylic_acid) > 8(carboxylic_acid)