SMILES,pKa,Dissociable_Atoms,Functional_Group,Name
OP(O)O,1.1,0:1,phosphate:phosphate,Hydrogen phosphite (Phosphorous acid)
OP(O)O,1.5,0:1,phosphate:phosphate,Hydrogen phosphite (Phosphorous acid)
O[P](O)(O)=O,11.52,0:1:2:3,phosphate:phosphate:phosphate:phosphate,Hydrogen phosphate (Phosphoric acid)
O[P](O)(O)=O,11.59,0:1:2:3,phosphate:phosphate:phosphate:phosphate,Hydrogen phosphate (Phosphoric acid)
O[P](O)(O)=O,11.82,0:1:2:3,phosphate:phosphate:phosphate:phosphate,Hydrogen phosphate (Phosphoric acid)
O[P](O)(O)=O,11.4,0:1:2:3,phosphate:phosphate:phosphate:phosphate,Hydrogen phosphate (Phosphoric acid)
O[P](O)(O)=O,11.24,0:1:2:3,phosphate:phosphate:phosphate:phosphate,Hydrogen phosphate (Phosphoric acid)
O[P](O)(O)=O,11.37,0:1:2:3,phosphate:phosphate:phosphate:phosphate,Hydrogen phosphate (Phosphoric acid)
O[P](O)(O)=O,11.8,0:1:2:3,phosphate:phosphate:phosphate:phosphate,Hydrogen phosphate (Phosphoric acid)
O[P](O)(O)=O,11.15,0:1:2:3,phosphate:phosphate:phosphate:phosphate,Hydrogen phosphate (Phosphoric acid)
O[P](O)(O)=O,11.36,0:1:2:3,phosphate:phosphate:phosphate:phosphate,Hydrogen phosphate (Phosphoric acid)
O[P](O)(O)=O,11.84,0:1:2:3,phosphate:phosphate:phosphate:phosphate,Hydrogen phosphate (Phosphoric acid)
O[P](O)(O)=O,11.03,0:1:2:3,phosphate:phosphate:phosphate:phosphate,Hydrogen phosphate (Phosphoric acid)
O[P](O)(O)=O,11.33,0:1:2:3,phosphate:phosphate:phosphate:phosphate,Hydrogen phosphate (Phosphoric acid)
O[P](O)(O)=O,10.9,0:1:2:3,phosphate:phosphate:phosphate:phosphate,Hydrogen phosphate (Phosphoric acid)
O[P](O)(O)=O,10.79,0:1:2:3,phosphate:phosphate:phosphate:phosphate,Hydrogen phosphate (Phosphoric acid)
O[P](O)(O)=O,10.84,0:1:2:3,phosphate:phosphate:phosphate:phosphate,Hydrogen phosphate (Phosphoric acid)
O[P](O)(O)=O,10.85,0:1:2:3,phosphate:phosphate:phosphate:phosphate,Hydrogen phosphate (Phosphoric acid)
O[P](O)(O)=O,10.91,0:1:2:3,phosphate:phosphate:phosphate:phosphate,Hydrogen phosphate (Phosphoric acid)
O[P](O)(O)=O,12.375,0:1:2:3,phosphate:phosphate:phosphate:phosphate,Hydrogen phosphate (Phosphoric acid)
O[P](O)(O)=O,6.71,0:1:2:3,phosphate:phosphate:phosphate:phosphate,Hydrogen phosphate (Phosphoric acid)
O[P](O)(O)=O,6.75,0:1:2:3,phosphate:phosphate:phosphate:phosphate,Hydrogen phosphate (Phosphoric acid)
O[P](O)(O)=O,6.92,0:1:2:3,phosphate:phosphate:phosphate:phosphate,Hydrogen phosphate (Phosphoric acid)
O[P](O)(O)=O,6.67,0:1:2:3,phosphate:phosphate:phosphate:phosphate,Hydrogen phosphate (Phosphoric acid)
O[P](O)(O)=O,6.44,0:1:2:3,phosphate:phosphate:phosphate:phosphate,Hydrogen phosphate (Phosphoric acid)
O[P](O)(O)=O,6.5,0:1:2:3,phosphate:phosphate:phosphate:phosphate,Hydrogen phosphate (Phosphoric acid)
O[P](O)(O)=O,6.85,0:1:2:3,phosphate:phosphate:phosphate:phosphate,Hydrogen phosphate (Phosphoric acid)
O[P](O)(O)=O,6.38,0:1:2:3,phosphate:phosphate:phosphate:phosphate,Hydrogen phosphate (Phosphoric acid)
O[P](O)(O)=O,6.51,0:1:2:3,phosphate:phosphate:phosphate:phosphate,Hydrogen phosphate (Phosphoric acid)
O[P](O)(O)=O,6.98,0:1:2:3,phosphate:phosphate:phosphate:phosphate,Hydrogen phosphate (Phosphoric acid)
O[P](O)(O)=O,6.34,0:1:2:3,phosphate:phosphate:phosphate:phosphate,Hydrogen phosphate (Phosphoric acid)
O[P](O)(O)=O,6.22,0:1:2:3,phosphate:phosphate:phosphate:phosphate,Hydrogen phosphate (Phosphoric acid)
O[P](O)(O)=O,6.46,0:1:2:3,phosphate:phosphate:phosphate:phosphate,Hydrogen phosphate (Phosphoric acid)
O[P](O)(O)=O,6.19,0:1:2:3,phosphate:phosphate:phosphate:phosphate,Hydrogen phosphate (Phosphoric acid)
O[P](O)(O)=O,6.26,0:1:2:3,phosphate:phosphate:phosphate:phosphate,Hydrogen phosphate (Phosphoric acid)
O[P](O)(O)=O,6.28,0:1:2:3,phosphate:phosphate:phosphate:phosphate,Hydrogen phosphate (Phosphoric acid)
O[P](O)(O)=O,7.254,0:1:2:3,phosphate:phosphate:phosphate:phosphate,Hydrogen phosphate (Phosphoric acid)
O[P](O)(O)=O,7.198,0:1:2:3,phosphate:phosphate:phosphate:phosphate,Hydrogen phosphate (Phosphoric acid)
O[P](O)(O)=O,7.179,0:1:2:3,phosphate:phosphate:phosphate:phosphate,Hydrogen phosphate (Phosphoric acid)
O[P](O)(O)=O,1.92,0:1:2:3,phosphate:phosphate:phosphate:phosphate,Hydrogen phosphate (Phosphoric acid)
O[P](O)(O)=O,1.98,0:1:2:3,phosphate:phosphate:phosphate:phosphate,Hydrogen phosphate (Phosphoric acid)
O[P](O)(O)=O,1.82,0:1:2:3,phosphate:phosphate:phosphate:phosphate,Hydrogen phosphate (Phosphoric acid)
O[P](O)(O)=O,1.97,0:1:2:3,phosphate:phosphate:phosphate:phosphate,Hydrogen phosphate (Phosphoric acid)
O[P](O)(O)=O,1.75,0:1:2:3,phosphate:phosphate:phosphate:phosphate,Hydrogen phosphate (Phosphoric acid)
O[P](O)(O)=O,1.74,0:1:2:3,phosphate:phosphate:phosphate:phosphate,Hydrogen phosphate (Phosphoric acid)
O[P](O)(O)=O,1.86,0:1:2:3,phosphate:phosphate:phosphate:phosphate,Hydrogen phosphate (Phosphoric acid)
O[P](O)(O)=O,1.77,0:1:2:3,phosphate:phosphate:phosphate:phosphate,Hydrogen phosphate (Phosphoric acid)
O[P](O)(O)=O,1.81,0:1:2:3,phosphate:phosphate:phosphate:phosphate,Hydrogen phosphate (Phosphoric acid)
O[P](O)(O)=O,2.088,0:1:2:3,phosphate:phosphate:phosphate:phosphate,Hydrogen phosphate (Phosphoric acid)
O[P](O)(O)=O,2.148,0:1:2:3,phosphate:phosphate:phosphate:phosphate,Hydrogen phosphate (Phosphoric acid)
O[P](O)(O)=O,2.222,0:1:2:3,phosphate:phosphate:phosphate:phosphate,Hydrogen phosphate (Phosphoric acid)
O[P](O)(O)=O,0.0,0:1:2:3,phosphate:phosphate:phosphate:phosphate,Hydrogen phosphate (Phosphoric acid)
O[P](O)(=O)O[P](O)(O)=O,8.25,0:1:2:5,phosphate:phosphate:phosphate:phosphate,Hydrogen diphosphate (Pyrophosphoric acid)
O[P](O)(=O)O[P](O)(O)=O,8.37,0:1:2:5,phosphate:phosphate:phosphate:phosphate,Hydrogen diphosphate (Pyrophosphoric acid)
O[P](O)(=O)O[P](O)(O)=O,8.92,0:1:2:5,phosphate:phosphate:phosphate:phosphate,Hydrogen diphosphate (Pyrophosphoric acid)
O[P](O)(=O)O[P](O)(O)=O,7.68,0:1:2:5,phosphate:phosphate:phosphate:phosphate,Hydrogen diphosphate (Pyrophosphoric acid)
O[P](O)(=O)O[P](O)(O)=O,7.88,0:1:2:5,phosphate:phosphate:phosphate:phosphate,Hydrogen diphosphate (Pyrophosphoric acid)
O[P](O)(=O)O[P](O)(O)=O,8.65,0:1:2:5,phosphate:phosphate:phosphate:phosphate,Hydrogen diphosphate (Pyrophosphoric acid)
O[P](O)(=O)O[P](O)(O)=O,7.49,0:1:2:5,phosphate:phosphate:phosphate:phosphate,Hydrogen diphosphate (Pyrophosphoric acid)
O[P](O)(=O)O[P](O)(O)=O,7.81,0:1:2:5,phosphate:phosphate:phosphate:phosphate,Hydrogen diphosphate (Pyrophosphoric acid)
O[P](O)(=O)O[P](O)(O)=O,8.74,0:1:2:5,phosphate:phosphate:phosphate:phosphate,Hydrogen diphosphate (Pyrophosphoric acid)
O[P](O)(=O)O[P](O)(O)=O,7.32,0:1:2:5,phosphate:phosphate:phosphate:phosphate,Hydrogen diphosphate (Pyrophosphoric acid)
O[P](O)(=O)O[P](O)(O)=O,7.71,0:1:2:5,phosphate:phosphate:phosphate:phosphate,Hydrogen diphosphate (Pyrophosphoric acid)
O[P](O)(=O)O[P](O)(O)=O,7.17,0:1:2:5,phosphate:phosphate:phosphate:phosphate,Hydrogen diphosphate (Pyrophosphoric acid)
O[P](O)(=O)O[P](O)(O)=O,7.29,0:1:2:5,phosphate:phosphate:phosphate:phosphate,Hydrogen diphosphate (Pyrophosphoric acid)
O[P](O)(=O)O[P](O)(O)=O,7.69,0:1:2:5,phosphate:phosphate:phosphate:phosphate,Hydrogen diphosphate (Pyrophosphoric acid)
O[P](O)(=O)O[P](O)(O)=O,9.4,0:1:2:5,phosphate:phosphate:phosphate:phosphate,Hydrogen diphosphate (Pyrophosphoric acid)
O[P](O)(=O)O[P](O)(O)=O,5.94,0:1:2:5,phosphate:phosphate:phosphate:phosphate,Hydrogen diphosphate (Pyrophosphoric acid)
O[P](O)(=O)O[P](O)(O)=O,6.02,0:1:2:5,phosphate:phosphate:phosphate:phosphate,Hydrogen diphosphate (Pyrophosphoric acid)
O[P](O)(=O)O[P](O)(O)=O,6.15,0:1:2:5,phosphate:phosphate:phosphate:phosphate,Hydrogen diphosphate (Pyrophosphoric acid)
O[P](O)(=O)O[P](O)(O)=O,5.57,0:1:2:5,phosphate:phosphate:phosphate:phosphate,Hydrogen diphosphate (Pyrophosphoric acid)
O[P](O)(=O)O[P](O)(O)=O,5.69,0:1:2:5,phosphate:phosphate:phosphate:phosphate,Hydrogen diphosphate (Pyrophosphoric acid)
O[P](O)(=O)O[P](O)(O)=O,6.01,0:1:2:5,phosphate:phosphate:phosphate:phosphate,Hydrogen diphosphate (Pyrophosphoric acid)
O[P](O)(=O)O[P](O)(O)=O,5.41,0:1:2:5,phosphate:phosphate:phosphate:phosphate,Hydrogen diphosphate (Pyrophosphoric acid)
O[P](O)(=O)O[P](O)(O)=O,5.59,0:1:2:5,phosphate:phosphate:phosphate:phosphate,Hydrogen diphosphate (Pyrophosphoric acid)
O[P](O)(=O)O[P](O)(O)=O,6.06,0:1:2:5,phosphate:phosphate:phosphate:phosphate,Hydrogen diphosphate (Pyrophosphoric acid)
O[P](O)(=O)O[P](O)(O)=O,5.37,0:1:2:5,phosphate:phosphate:phosphate:phosphate,Hydrogen diphosphate (Pyrophosphoric acid)
O[P](O)(=O)O[P](O)(O)=O,5.58,0:1:2:5,phosphate:phosphate:phosphate:phosphate,Hydrogen diphosphate (Pyrophosphoric acid)
O[P](O)(=O)O[P](O)(O)=O,5.29,0:1:2:5,phosphate:phosphate:phosphate:phosphate,Hydrogen diphosphate (Pyrophosphoric acid)
O[P](O)(=O)O[P](O)(O)=O,5.39,0:1:2:5,phosphate:phosphate:phosphate:phosphate,Hydrogen diphosphate (Pyrophosphoric acid)
O[P](O)(=O)O[P](O)(O)=O,6.7,0:1:2:5,phosphate:phosphate:phosphate:phosphate,Hydrogen diphosphate (Pyrophosphoric acid)
O[P](O)(=O)O[P](O)(O)=O,1.9,0:1:2:5,phosphate:phosphate:phosphate:phosphate,Hydrogen diphosphate (Pyrophosphoric acid)
O[P](O)(=O)O[P](O)(O)=O,1.5,0:1:2:5,phosphate:phosphate:phosphate:phosphate,Hydrogen diphosphate (Pyrophosphoric acid)
O[P](O)(=O)O[P](O)(O)=O,1.4,0:1:2:5,phosphate:phosphate:phosphate:phosphate,Hydrogen diphosphate (Pyrophosphoric acid)
O[P](O)(=O)O[P](O)(O)=O,2.28,0:1:2:5,phosphate:phosphate:phosphate:phosphate,Hydrogen diphosphate (Pyrophosphoric acid)
O[P](O)(=O)O[P](O)(O)=O,0.8,0:1:2:5,phosphate:phosphate:phosphate:phosphate,Hydrogen diphosphate (Pyrophosphoric acid)
O[P](O)(=O)O[P](O)(O)=O,0.7,0:1:2:5,phosphate:phosphate:phosphate:phosphate,Hydrogen diphosphate (Pyrophosphoric acid)
O[P](O)(=O)O[P](O)(O)=O,0.9,0:1:2:5,phosphate:phosphate:phosphate:phosphate,Hydrogen diphosphate (Pyrophosphoric acid)
O[P](O)(=O)[P](O)(O)=O,9.48,0:1:2,phosphate:phosphate:phosphate,Hydrogen hypophosphate (Hypophosphoric acid)
O[P](O)(=O)[P](O)(O)=O,6.77,0:1:2,phosphate:phosphate:phosphate,Hydrogen hypophosphate (Hypophosphoric acid)
O[P](O)(=O)[P](O)(O)=O,2.1,0:1:2,phosphate:phosphate:phosphate,Hydrogen hypophosphate (Hypophosphoric acid)
O[P](O)(=O)O[P](O)(=O)O[P](O)(O)=O,7.77,0:1:2:5:6,phosphate:phosphate:phosphate:phosphate:phosphate,Hydrogen triphosphate (Triphosphoric acid)
O[P](O)(=O)O[P](O)(=O)O[P](O)(O)=O,7.97,0:1:2:5:6,phosphate:phosphate:phosphate:phosphate:phosphate,Hydrogen triphosphate (Triphosphoric acid)
O[P](O)(=O)O[P](O)(=O)O[P](O)(O)=O,8.62,0:1:2:5:6,phosphate:phosphate:phosphate:phosphate:phosphate,Hydrogen triphosphate (Triphosphoric acid)
O[P](O)(=O)O[P](O)(=O)O[P](O)(O)=O,7.1,0:1:2:5:6,phosphate:phosphate:phosphate:phosphate:phosphate,Hydrogen triphosphate (Triphosphoric acid)
O[P](O)(=O)O[P](O)(=O)O[P](O)(O)=O,7.38,0:1:2:5:6,phosphate:phosphate:phosphate:phosphate:phosphate,Hydrogen triphosphate (Triphosphoric acid)
O[P](O)(=O)O[P](O)(=O)O[P](O)(O)=O,8.38,0:1:2:5:6,phosphate:phosphate:phosphate:phosphate:phosphate,Hydrogen triphosphate (Triphosphoric acid)
O[P](O)(=O)O[P](O)(=O)O[P](O)(O)=O,6.66,0:1:2:5:6,phosphate:phosphate:phosphate:phosphate:phosphate,Hydrogen triphosphate (Triphosphoric acid)
O[P](O)(=O)O[P](O)(=O)O[P](O)(O)=O,6.96,0:1:2:5:6,phosphate:phosphate:phosphate:phosphate:phosphate,Hydrogen triphosphate (Triphosphoric acid)
O[P](O)(=O)O[P](O)(=O)O[P](O)(O)=O,8.61,0:1:2:5:6,phosphate:phosphate:phosphate:phosphate:phosphate,Hydrogen triphosphate (Triphosphoric acid)
O[P](O)(=O)O[P](O)(=O)O[P](O)(O)=O,9.25,0:1:2:5:6,phosphate:phosphate:phosphate:phosphate:phosphate,Hydrogen triphosphate (Triphosphoric acid)
O[P](O)(=O)O[P](O)(=O)O[P](O)(O)=O,5.42,0:1:2:5:6,phosphate:phosphate:phosphate:phosphate:phosphate,Hydrogen triphosphate (Triphosphoric acid)
O[P](O)(=O)O[P](O)(=O)O[P](O)(O)=O,5.46,0:1:2:5:6,phosphate:phosphate:phosphate:phosphate:phosphate,Hydrogen triphosphate (Triphosphoric acid)
O[P](O)(=O)O[P](O)(=O)O[P](O)(O)=O,5.87,0:1:2:5:6,phosphate:phosphate:phosphate:phosphate:phosphate,Hydrogen triphosphate (Triphosphoric acid)
O[P](O)(=O)O[P](O)(=O)O[P](O)(O)=O,4.85,0:1:2:5:6,phosphate:phosphate:phosphate:phosphate:phosphate,Hydrogen triphosphate (Triphosphoric acid)
O[P](O)(=O)O[P](O)(=O)O[P](O)(O)=O,4.89,0:1:2:5:6,phosphate:phosphate:phosphate:phosphate:phosphate,Hydrogen triphosphate (Triphosphoric acid)
O[P](O)(=O)O[P](O)(=O)O[P](O)(O)=O,5.79,0:1:2:5:6,phosphate:phosphate:phosphate:phosphate:phosphate,Hydrogen triphosphate (Triphosphoric acid)
O[P](O)(=O)O[P](O)(=O)O[P](O)(O)=O,4.47,0:1:2:5:6,phosphate:phosphate:phosphate:phosphate:phosphate,Hydrogen triphosphate (Triphosphoric acid)
O[P](O)(=O)O[P](O)(=O)O[P](O)(O)=O,4.52,0:1:2:5:6,phosphate:phosphate:phosphate:phosphate:phosphate,Hydrogen triphosphate (Triphosphoric acid)
O[P](O)(=O)O[P](O)(=O)O[P](O)(O)=O,5.68,0:1:2:5:6,phosphate:phosphate:phosphate:phosphate:phosphate,Hydrogen triphosphate (Triphosphoric acid)
O[P](O)(=O)O[P](O)(=O)O[P](O)(O)=O,6.54,0:1:2:5:6,phosphate:phosphate:phosphate:phosphate:phosphate,Hydrogen triphosphate (Triphosphoric acid)
O[P](O)(=O)O[P](O)(=O)O[P](O)(O)=O,1.83,0:1:2:5:6,phosphate:phosphate:phosphate:phosphate:phosphate,Hydrogen triphosphate (Triphosphoric acid)
O[P](O)(=O)O[P](O)(=O)O[P](O)(O)=O,1.6,0:1:2:5:6,phosphate:phosphate:phosphate:phosphate:phosphate,Hydrogen triphosphate (Triphosphoric acid)
O[P](O)(=O)O[P](O)(=O)O[P](O)(O)=O,1.9,0:1:2:5:6,phosphate:phosphate:phosphate:phosphate:phosphate,Hydrogen triphosphate (Triphosphoric acid)
O[P](O)(=O)O[P](O)(=O)O[P](O)(O)=O,2.37,0:1:2:5:6,phosphate:phosphate:phosphate:phosphate:phosphate,Hydrogen triphosphate (Triphosphoric acid)
O[P](O)(=O)O[P](O)(=O)O[P](O)(O)=O,0.9,0:1:2:5:6,phosphate:phosphate:phosphate:phosphate:phosphate,Hydrogen triphosphate (Triphosphoric acid)
O[P](O)(=O)O[P](O)(=O)O[P](O)(O)=O,1.3,0:1:2:5:6,phosphate:phosphate:phosphate:phosphate:phosphate,Hydrogen triphosphate (Triphosphoric acid)
O[P](O)(=O)O[P](O)(=O)O[P](O)(O)=O,0.5,0:1:2:5:6,phosphate:phosphate:phosphate:phosphate:phosphate,Hydrogen triphosphate (Triphosphoric acid)
O[P](O)(=O)O[P](O)(=O)O[P](O)(=O)O[P](O)(O)=O,7.43,0:1:2:5,phosphate:phosphate:phosphate:phosphate,Hydrogen tetraphosphate (Tetraphosphoric acid)
O[P](O)(=O)O[P](O)(=O)O[P](O)(=O)O[P](O)(O)=O,8.4,0:1:2:5,phosphate:phosphate:phosphate:phosphate,Hydrogen tetraphosphate (Tetraphosphoric acid)
O[P](O)(=O)O[P](O)(=O)O[P](O)(=O)O[P](O)(O)=O,6.36,0:1:2:5,phosphate:phosphate:phosphate:phosphate,Hydrogen tetraphosphate (Tetraphosphoric acid)
O[P](O)(=O)O[P](O)(=O)O[P](O)(=O)O[P](O)(O)=O,6.78,0:1:2:5,phosphate:phosphate:phosphate:phosphate,Hydrogen tetraphosphate (Tetraphosphoric acid)
O[P](O)(=O)O[P](O)(=O)O[P](O)(=O)O[P](O)(O)=O,8.18,0:1:2:5,phosphate:phosphate:phosphate:phosphate,Hydrogen tetraphosphate (Tetraphosphoric acid)
O[P](O)(=O)O[P](O)(=O)O[P](O)(=O)O[P](O)(O)=O,9.11,0:1:2:5,phosphate:phosphate:phosphate:phosphate,Hydrogen tetraphosphate (Tetraphosphoric acid)
O[P](O)(=O)O[P](O)(=O)O[P](O)(=O)O[P](O)(O)=O,5.84,0:1:2:5,phosphate:phosphate:phosphate:phosphate,Hydrogen tetraphosphate (Tetraphosphoric acid)
O[P](O)(=O)O[P](O)(=O)O[P](O)(=O)O[P](O)(O)=O,6.54,0:1:2:5,phosphate:phosphate:phosphate:phosphate,Hydrogen tetraphosphate (Tetraphosphoric acid)
O[P](O)(=O)O[P](O)(=O)O[P](O)(=O)O[P](O)(O)=O,4.82,0:1:2:5,phosphate:phosphate:phosphate:phosphate,Hydrogen tetraphosphate (Tetraphosphoric acid)
O[P](O)(=O)O[P](O)(=O)O[P](O)(=O)O[P](O)(O)=O,5.08,0:1:2:5,phosphate:phosphate:phosphate:phosphate,Hydrogen tetraphosphate (Tetraphosphoric acid)
O[P](O)(=O)O[P](O)(=O)O[P](O)(=O)O[P](O)(O)=O,6.49,0:1:2:5,phosphate:phosphate:phosphate:phosphate,Hydrogen tetraphosphate (Tetraphosphoric acid)
O[P](O)(=O)O[P](O)(=O)O[P](O)(=O)O[P](O)(O)=O,7.38,0:1:2:5,phosphate:phosphate:phosphate:phosphate,Hydrogen tetraphosphate (Tetraphosphoric acid)
O[P](O)(=O)O[P](O)(=O)O[P](O)(=O)O[P](O)(O)=O,1.2,0:1:2:5,phosphate:phosphate:phosphate:phosphate,Hydrogen tetraphosphate (Tetraphosphoric acid)
O[P](O)(=O)O[P](O)(=O)O[P](O)(=O)O[P](O)(O)=O,2.09,0:1:2:5,phosphate:phosphate:phosphate:phosphate,Hydrogen tetraphosphate (Tetraphosphoric acid)
Nc1cccc(I)c1,3.744,0,aniline,3-Iodoaniline
Nc1cccc(I)c1,3.583,0,aniline,3-Iodoaniline
Nc1cccc(I)c1,3.433,0,aniline,3-Iodoaniline
Nc1ccc(I)cc1,3.983,0,aniline,4-Iodoaniline
Nc1ccc(I)cc1,3.812,0,aniline,4-Iodoaniline
Nc1ccc(I)cc1,3.659,0,aniline,4-Iodoaniline
NC(=S)c1ccc(N)cc1,2.604,7,aniline,4-Thiocarbamylaniline
Nc1ccccc1[S](O)(=O)=O,2.29,0,aniline,2-Aminobenzenesulfonic acid (Orthanilic acid)
Nc1ccccc1[S](O)(=O)=O,2.521,0,aniline,2-Aminobenzenesulfonic acid (Orthanilic acid)
Nc1ccccc1[S](O)(=O)=O,2.458,0,aniline,2-Aminobenzenesulfonic acid (Orthanilic acid)
Nc1ccccc1[S](O)(=O)=O,2.404,0,aniline,2-Aminobenzenesulfonic acid (Orthanilic acid)
Nc1cccc(c1)[S](O)(=O)=O,3.55,0,aniline,3-Aminobenzenesulfonic acid (Metanilic acid)
Nc1cccc(c1)[S](O)(=O)=O,3.864,0,aniline,3-Aminobenzenesulfonic acid (Metanilic acid)
Nc1cccc(c1)[S](O)(=O)=O,3.738,0,aniline,3-Aminobenzenesulfonic acid (Metanilic acid)
Nc1cccc(c1)[S](O)(=O)=O,3.622,0,aniline,3-Aminobenzenesulfonic acid (Metanilic acid)
Nc1ccc(cc1)[S](O)(=O)=O,3.01,0,aniline,4-Aminobenzenesulfonic acid (Sulfanilic acid)
Nc1ccc(cc1)[S](O)(=O)=O,3.342,0,aniline,4-Aminobenzenesulfonic acid (Sulfanilic acid)
Nc1ccc(cc1)[S](O)(=O)=O,3.232,0,aniline,4-Aminobenzenesulfonic acid (Sulfanilic acid)
Nc1ccc(cc1)[S](O)(=O)=O,3.131,0,aniline,4-Aminobenzenesulfonic acid (Sulfanilic acid)
Cc1ccc(cc1N)[S](O)(=O)=O,3.763,7,aniline,3-Amino-4-methylbenzenesulfonic acid
Cc1ccc(cc1N)[S](O)(=O)=O,3.633,7,aniline,3-Amino-4-methylbenzenesulfonic acid
Cc1ccc(cc1N)[S](O)(=O)=O,3.514,7,aniline,3-Amino-4-methylbenzenesulfonic acid
Cc1cc(ccc1N)[S](O)(=O)=O,3.24,7,aniline,4-Amino-3-methylbenzenesulfonic acid
Cc1cc(ccc1N)[S](O)(=O)=O,3.124,7,aniline,4-Amino-3-methylbenzenesulfonic acid
Cc1cc(ccc1N)[S](O)(=O)=O,3.019,7,aniline,4-Amino-3-methylbenzenesulfonic acid
Nc1ccccc1O,9.87,7:0,phenol:aniline,2-Aminophenol
Nc1ccccc1O,9.67,7:0,phenol:aniline,2-Aminophenol
Nc1ccccc1O,9.97,7:0,phenol:aniline,2-Aminophenol
Nc1ccccc1O,4.74,7:0,phenol:aniline,2-Aminophenol
Nc1ccccc1O,4.89,7:0,phenol:aniline,2-Aminophenol
Nc1ccccc1O,4.7,7:0,phenol:aniline,2-Aminophenol
Nc1cccc(O)c1,9.82,6:0,phenol:aniline,3-Aminophenol
Nc1cccc(O)c1,10.02,6:0,phenol:aniline,3-Aminophenol
Nc1cccc(O)c1,4.28,6:0,phenol:aniline,3-Aminophenol
Nc1cccc(O)c1,4.27,6:0,phenol:aniline,3-Aminophenol
Nc1cc(ccc1O)[S](O)(=O)=O,9.15,7:0,phenol:aniline,3-Amino-4-hydroxybenzenesulfonic acid
Nc1cc(ccc1O)[S](O)(=O)=O,4.12,7:0,phenol:aniline,3-Amino-4-hydroxybenzenesulfonic acid
Nc1ccccc1[As](O)(O)=O,8.93,0:8:9,amine_primary:alcohol:alcohol,2-Aminobenzenearsonic acid
Nc1ccccc1[As](O)(O)=O,3.79,0:8:9,amine_primary:alcohol:alcohol,2-Aminobenzenearsonic acid
Nc1ccccc1[As](O)(O)=O,0.7,0:8:9,amine_primary:alcohol:alcohol,2-Aminobenzenearsonic acid
Nc1ccc(cc1)[As](O)(O)=O,9.19,0:8:9,amine_primary:alcohol:alcohol,4-Aminobenzenearsonic acid
Nc1ccc(cc1)[As](O)(O)=O,4.13,0:8:9,amine_primary:alcohol:alcohol,4-Aminobenzenearsonic acid
Nc1ccc(cc1)[As](O)(O)=O,1.9,0:8:9,amine_primary:alcohol:alcohol,4-Aminobenzenearsonic acid
COc1ccccc1N,4.721,8,aniline,2-Methoxyaniline (o-Anisidine)
COc1ccccc1N,4.526,8,aniline,2-Methoxyaniline (o-Anisidine)
COc1ccccc1N,4.354,8,aniline,2-Methoxyaniline (o-Anisidine)
COc1cccc(N)c1,4.378,7,aniline,3-Methoxyaniline (m-Anisidine)
COc1cccc(N)c1,4.204,7,aniline,3-Methoxyaniline (m-Anisidine)
COc1cccc(N)c1,4.034,7,aniline,3-Methoxyaniline (m-Anisidine)
COc1ccc(N)cc1,5.33,6,aniline,4-Methoxyaniline (p-Anisidine)
COc1ccc(N)cc1,5.577,6,aniline,4-Methoxyaniline (p-Anisidine)
COc1ccc(N)cc1,5.357,6,aniline,4-Methoxyaniline (p-Anisidine)
COc1ccc(N)cc1,5.162,6,aniline,4-Methoxyaniline (p-Anisidine)
CCOc1ccccc1N,4.482,9,aniline,2-Ethoxyaniline (o-Phenetidine)
CCOc1cccc(N)c1,4.17,8,aniline,3-Ethoxyaniline (m-Phenetidine)
CCOc1ccc(N)cc1,5.25,7,aniline,4-Ethoxyaniline (p-Phenetidine)
CC(=O)c1ccc(N)cc1,2.29,7,aniline,4-Acetylaniline
Nc1ccccc1C(=O)NO,8.82,0:9,amine_primary:amine_secondary,2-Aminobenzohydroxamic acid
Nc1ccccc1C(=O)NO,2.68,0:9,amine_primary:amine_secondary,2-Aminobenzohydroxamic acid
Nc1ccccc1N,4.66,7:0,aniline:aniline,"1,2-Diaminobenzene (o-Phenylenediamine)"