SMILES,pKa,Dissociable_Atoms,Functional_Group,Name,Dissociable_Atoms_Ordered,Functional_Group_Ordered,Dissociation_Order
OC(=O)c1c(C(O)=O)c(C(O)=O)c(C(O)=O)c(C(O)=O)c1C(O)=O,6.46,0:6:10:14:18:22,carboxylic_acid:carboxylic_acid:carboxylic_acid:carboxylic_acid:carboxylic_acid:carboxylic_acid,Benzenehexacarboxylic acid (Mellitic acid),0:6:10:14:18:22,carboxylic_acid:carboxylic_acid:carboxylic_acid:carboxylic_acid:carboxylic_acid:carboxylic_acid,0(carboxylic_acid) > 6(carboxylic_acid) > 10(carboxylic_acid) > 14(carboxylic_acid) > 18(carboxylic_acid) > 22(carboxylic_acid)
OC(=O)c1c(C(O)=O)c(C(O)=O)c(C(O)=O)c(C(O)=O)c1C(O)=O,5.38,0:6:10:14:18:22,carboxylic_acid:carboxylic_acid:carboxylic_acid:carboxylic_acid:carboxylic_acid:carboxylic_acid,Benzenehexacarboxylic acid (Mellitic acid),0:6:10:14:18:22,carboxylic_acid:carboxylic_acid:carboxylic_acid:carboxylic_acid:carboxylic_acid:carboxylic_acid,0(carboxylic_acid) > 6(carboxylic_acid) > 10(carboxylic_acid) > 14(carboxylic_acid) > 18(carboxylic_acid) > 22(carboxylic_acid)
OC(=O)c1c(C(O)=O)c(C(O)=O)c(C(O)=O)c(C(O)=O)c1C(O)=O,7.7,0:6:10:14:18:22,carboxylic_acid:carboxylic_acid:carboxylic_acid:carboxylic_acid:carboxylic_acid:carboxylic_acid,Benzenehexacarboxylic acid (Mellitic acid),0:6:10:14:18:22,carboxylic_acid:carboxylic_acid:carboxylic_acid:carboxylic_acid:carboxylic_acid:carboxylic_acid,0(carboxylic_acid) > 6(carboxylic_acid) > 10(carboxylic_acid) > 14(carboxylic_acid) > 18(carboxylic_acid) > 22(carboxylic_acid)
OC(=O)c1c(C(O)=O)c(C(O)=O)c(C(O)=O)c(C(O)=O)c1C(O)=O,5.37,0:6:10:14:18:22,carboxylic_acid:carboxylic_acid:carboxylic_acid:carboxylic_acid:carboxylic_acid:carboxylic_acid,Benzenehexacarboxylic acid (Mellitic acid),0:6:10:14:18:22,carboxylic_acid:carboxylic_acid:carboxylic_acid:carboxylic_acid:carboxylic_acid:carboxylic_acid,0(carboxylic_acid) > 6(carboxylic_acid) > 10(carboxylic_acid) > 14(carboxylic_acid) > 18(carboxylic_acid) > 22(carboxylic_acid)
OC(=O)c1c(C(O)=O)c(C(O)=O)c(C(O)=O)c(C(O)=O)c1C(O)=O,4.43,0:6:10:14:18:22,carboxylic_acid:carboxylic_acid:carboxylic_acid:carboxylic_acid:carboxylic_acid:carboxylic_acid,Benzenehexacarboxylic acid (Mellitic acid),0:6:10:14:18:22,carboxylic_acid:carboxylic_acid:carboxylic_acid:carboxylic_acid:carboxylic_acid:carboxylic_acid,0(carboxylic_acid) > 6(carboxylic_acid) > 10(carboxylic_acid) > 14(carboxylic_acid) > 18(carboxylic_acid) > 22(carboxylic_acid)
OC(=O)c1c(C(O)=O)c(C(O)=O)c(C(O)=O)c(C(O)=O)c1C(O)=O,6.38,0:6:10:14:18:22,carboxylic_acid:carboxylic_acid:carboxylic_acid:carboxylic_acid:carboxylic_acid:carboxylic_acid,Benzenehexacarboxylic acid (Mellitic acid),0:6:10:14:18:22,carboxylic_acid:carboxylic_acid:carboxylic_acid:carboxylic_acid:carboxylic_acid:carboxylic_acid,0(carboxylic_acid) > 6(carboxylic_acid) > 10(carboxylic_acid) > 14(carboxylic_acid) > 18(carboxylic_acid) > 22(carboxylic_acid)
OC(=O)c1c(C(O)=O)c(C(O)=O)c(C(O)=O)c(C(O)=O)c1C(O)=O,4.31,0:6:10:14:18:22,carboxylic_acid:carboxylic_acid:carboxylic_acid:carboxylic_acid:carboxylic_acid:carboxylic_acid,Benzenehexacarboxylic acid (Mellitic acid),0:6:10:14:18:22,carboxylic_acid:carboxylic_acid:carboxylic_acid:carboxylic_acid:carboxylic_acid:carboxylic_acid,0(carboxylic_acid) > 6(carboxylic_acid) > 10(carboxylic_acid) > 14(carboxylic_acid) > 18(carboxylic_acid) > 22(carboxylic_acid)
OC(=O)c1c(C(O)=O)c(C(O)=O)c(C(O)=O)c(C(O)=O)c1C(O)=O,4.23,0:6:10:14:18:22,carboxylic_acid:carboxylic_acid:carboxylic_acid:carboxylic_acid:carboxylic_acid:carboxylic_acid,Benzenehexacarboxylic acid (Mellitic acid),0:6:10:14:18:22,carboxylic_acid:carboxylic_acid:carboxylic_acid:carboxylic_acid:carboxylic_acid:carboxylic_acid,0(carboxylic_acid) > 6(carboxylic_acid) > 10(carboxylic_acid) > 14(carboxylic_acid) > 18(carboxylic_acid) > 22(carboxylic_acid)
OC(=O)c1c(C(O)=O)c(C(O)=O)c(C(O)=O)c(C(O)=O)c1C(O)=O,5.09,0:6:10:14:18:22,carboxylic_acid:carboxylic_acid:carboxylic_acid:carboxylic_acid:carboxylic_acid:carboxylic_acid,Benzenehexacarboxylic acid (Mellitic acid),0:6:10:14:18:22,carboxylic_acid:carboxylic_acid:carboxylic_acid:carboxylic_acid:carboxylic_acid:carboxylic_acid,0(carboxylic_acid) > 6(carboxylic_acid) > 10(carboxylic_acid) > 14(carboxylic_acid) > 18(carboxylic_acid) > 22(carboxylic_acid)
OC(=O)c1c(C(O)=O)c(C(O)=O)c(C(O)=O)c(C(O)=O)c1C(O)=O,2.93,0:6:10:14:18:22,carboxylic_acid:carboxylic_acid:carboxylic_acid:carboxylic_acid:carboxylic_acid:carboxylic_acid,Benzenehexacarboxylic acid (Mellitic acid),0:6:10:14:18:22,carboxylic_acid:carboxylic_acid:carboxylic_acid:carboxylic_acid:carboxylic_acid:carboxylic_acid,0(carboxylic_acid) > 6(carboxylic_acid) > 10(carboxylic_acid) > 14(carboxylic_acid) > 18(carboxylic_acid) > 22(carboxylic_acid)
OC(=O)c1c(C(O)=O)c(C(O)=O)c(C(O)=O)c(C(O)=O)c1C(O)=O,2.43,0:6:10:14:18:22,carboxylic_acid:carboxylic_acid:carboxylic_acid:carboxylic_acid:carboxylic_acid:carboxylic_acid,Benzenehexacarboxylic acid (Mellitic acid),0:6:10:14:18:22,carboxylic_acid:carboxylic_acid:carboxylic_acid:carboxylic_acid:carboxylic_acid:carboxylic_acid,0(carboxylic_acid) > 6(carboxylic_acid) > 10(carboxylic_acid) > 14(carboxylic_acid) > 18(carboxylic_acid) > 22(carboxylic_acid)
OC(=O)c1c(C(O)=O)c(C(O)=O)c(C(O)=O)c(C(O)=O)c1C(O)=O,3.5,0:6:10:14:18:22,carboxylic_acid:carboxylic_acid:carboxylic_acid:carboxylic_acid:carboxylic_acid:carboxylic_acid,Benzenehexacarboxylic acid (Mellitic acid),0:6:10:14:18:22,carboxylic_acid:carboxylic_acid:carboxylic_acid:carboxylic_acid:carboxylic_acid:carboxylic_acid,0(carboxylic_acid) > 6(carboxylic_acid) > 10(carboxylic_acid) > 14(carboxylic_acid) > 18(carboxylic_acid) > 22(carboxylic_acid)
OC(=O)c1c(C(O)=O)c(C(O)=O)c(C(O)=O)c(C(O)=O)c1C(O)=O,1.7,0:6:10:14:18:22,carboxylic_acid:carboxylic_acid:carboxylic_acid:carboxylic_acid:carboxylic_acid:carboxylic_acid,Benzenehexacarboxylic acid (Mellitic acid),0:6:10:14:18:22,carboxylic_acid:carboxylic_acid:carboxylic_acid:carboxylic_acid:carboxylic_acid:carboxylic_acid,0(carboxylic_acid) > 6(carboxylic_acid) > 10(carboxylic_acid) > 14(carboxylic_acid) > 18(carboxylic_acid) > 22(carboxylic_acid)
OC(=O)c1c(C(O)=O)c(C(O)=O)c(C(O)=O)c(C(O)=O)c1C(O)=O,2.08,0:6:10:14:18:22,carboxylic_acid:carboxylic_acid:carboxylic_acid:carboxylic_acid:carboxylic_acid:carboxylic_acid,Benzenehexacarboxylic acid (Mellitic acid),0:6:10:14:18:22,carboxylic_acid:carboxylic_acid:carboxylic_acid:carboxylic_acid:carboxylic_acid:carboxylic_acid,0(carboxylic_acid) > 6(carboxylic_acid) > 10(carboxylic_acid) > 14(carboxylic_acid) > 18(carboxylic_acid) > 22(carboxylic_acid)
OC(=O)c1c(C(O)=O)c(C(O)=O)c(C(O)=O)c(C(O)=O)c1C(O)=O,2.18,0:6:10:14:18:22,carboxylic_acid:carboxylic_acid:carboxylic_acid:carboxylic_acid:carboxylic_acid:carboxylic_acid,Benzenehexacarboxylic acid (Mellitic acid),0:6:10:14:18:22,carboxylic_acid:carboxylic_acid:carboxylic_acid:carboxylic_acid:carboxylic_acid:carboxylic_acid,0(carboxylic_acid) > 6(carboxylic_acid) > 10(carboxylic_acid) > 14(carboxylic_acid) > 18(carboxylic_acid) > 22(carboxylic_acid)
OC(=O)c1c(C(O)=O)c(C(O)=O)c(C(O)=O)c(C(O)=O)c1C(O)=O,0.5,0:6:10:14:18:22,carboxylic_acid:carboxylic_acid:carboxylic_acid:carboxylic_acid:carboxylic_acid:carboxylic_acid,Benzenehexacarboxylic acid (Mellitic acid),0:6:10:14:18:22,carboxylic_acid:carboxylic_acid:carboxylic_acid:carboxylic_acid:carboxylic_acid:carboxylic_acid,0(carboxylic_acid) > 6(carboxylic_acid) > 10(carboxylic_acid) > 14(carboxylic_acid) > 18(carboxylic_acid) > 22(carboxylic_acid)
OC(=O)c1c(C(O)=O)c(C(O)=O)c(C(O)=O)c(C(O)=O)c1C(O)=O,1.1,0:6:10:14:18:22,carboxylic_acid:carboxylic_acid:carboxylic_acid:carboxylic_acid:carboxylic_acid:carboxylic_acid,Benzenehexacarboxylic acid (Mellitic acid),0:6:10:14:18:22,carboxylic_acid:carboxylic_acid:carboxylic_acid:carboxylic_acid:carboxylic_acid:carboxylic_acid,0(carboxylic_acid) > 6(carboxylic_acid) > 10(carboxylic_acid) > 14(carboxylic_acid) > 18(carboxylic_acid) > 22(carboxylic_acid)
OC(=O)c1c(C(O)=O)c(C(O)=O)c(C(O)=O)c(C(O)=O)c1C(O)=O,1.0,0:6:10:14:18:22,carboxylic_acid:carboxylic_acid:carboxylic_acid:carboxylic_acid:carboxylic_acid:carboxylic_acid,Benzenehexacarboxylic acid (Mellitic acid),0:6:10:14:18:22,carboxylic_acid:carboxylic_acid:carboxylic_acid:carboxylic_acid:carboxylic_acid:carboxylic_acid,0(carboxylic_acid) > 6(carboxylic_acid) > 10(carboxylic_acid) > 14(carboxylic_acid) > 18(carboxylic_acid) > 22(carboxylic_acid)
C[P](O)(O)=O,7.49,1:2,phosphate:phosphate,Methylphosphonic acid,1:2,phosphate:phosphate,1(phosphate) > 2(phosphate)
C[P](O)(O)=O,8.0,1:2,phosphate:phosphate,Methylphosphonic acid,1:2,phosphate:phosphate,1(phosphate) > 2(phosphate)
C[P](O)(O)=O,2.16,1:2,phosphate:phosphate,Methylphosphonic acid,1:2,phosphate:phosphate,1(phosphate) > 2(phosphate)
CC[P](O)(O)=O,7.72,2:3,phosphate:phosphate,Ethylphosphonic acid,2:3,phosphate:phosphate,2(phosphate) > 3(phosphate)
CC[P](O)(O)=O,2.26,2:3,phosphate:phosphate,Ethylphosphonic acid,2:3,phosphate:phosphate,2(phosphate) > 3(phosphate)
CC(C)(C)[P](O)(O)=O,8.44,4:5,phosphate:phosphate,2-Methyl-2-propylphosphonic acid,4:5,phosphate:phosphate,4(phosphate) > 5(phosphate)
CC(C)(C)[P](O)(O)=O,8.71,4:5,phosphate:phosphate,2-Methyl-2-propylphosphonic acid,4:5,phosphate:phosphate,4(phosphate) > 5(phosphate)
CC(C)(C)[P](O)(O)=O,2.63,4:5,phosphate:phosphate,2-Methyl-2-propylphosphonic acid,4:5,phosphate:phosphate,4(phosphate) > 5(phosphate)
O[P](O)(=O)C1CCCCC1,8.17,0:1,phosphate:phosphate,Cyclohexylphosphonic acid,0:1,phosphate:phosphate,0(phosphate) > 1(phosphate)
O[P](O)(=O)C1CCCCC1,2.49,0:1,phosphate:phosphate,Cyclohexylphosphonic acid,0:1,phosphate:phosphate,0(phosphate) > 1(phosphate)
O[P](O)(=O)c1ccccc1,7.0,0:1,phosphate:phosphate,Phenylphosphonic acid,0:1,phosphate:phosphate,0(phosphate) > 1(phosphate)
O[P](O)(=O)c1ccccc1,6.71,0:1,phosphate:phosphate,Phenylphosphonic acid,0:1,phosphate:phosphate,0(phosphate) > 1(phosphate)
O[P](O)(=O)c1ccccc1,6.85,0:1,phosphate:phosphate,Phenylphosphonic acid,0:1,phosphate:phosphate,0(phosphate) > 1(phosphate)
O[P](O)(=O)c1ccccc1,6.72,0:1,phosphate:phosphate,Phenylphosphonic acid,0:1,phosphate:phosphate,0(phosphate) > 1(phosphate)
O[P](O)(=O)c1ccccc1,6.75,0:1,phosphate:phosphate,Phenylphosphonic acid,0:1,phosphate:phosphate,0(phosphate) > 1(phosphate)
O[P](O)(=O)c1ccccc1,7.47,0:1,phosphate:phosphate,Phenylphosphonic acid,0:1,phosphate:phosphate,0(phosphate) > 1(phosphate)
O[P](O)(=O)c1ccccc1,1.7,0:1,phosphate:phosphate,Phenylphosphonic acid,0:1,phosphate:phosphate,0(phosphate) > 1(phosphate)
O[P](O)(=O)c1ccccc1,1.6,0:1,phosphate:phosphate,Phenylphosphonic acid,0:1,phosphate:phosphate,0(phosphate) > 1(phosphate)
O[P](O)(=O)c1ccccc1,1.9,0:1,phosphate:phosphate,Phenylphosphonic acid,0:1,phosphate:phosphate,0(phosphate) > 1(phosphate)
Cc1ccccc1[P](O)(O)=O,7.92,7:8,phosphate:phosphate,2-Methylphenylphosphonic acid,7:8,phosphate:phosphate,7(phosphate) > 8(phosphate)
Cc1ccccc1[P](O)(O)=O,2.08,7:8,phosphate:phosphate,2-Methylphenylphosphonic acid,7:8,phosphate:phosphate,7(phosphate) > 8(phosphate)
Cc1cccc(c1)[P](O)(O)=O,7.64,7:8,phosphate:phosphate,3-Methylphenylphosphonic acid,7:8,phosphate:phosphate,7(phosphate) > 8(phosphate)
Cc1cccc(c1)[P](O)(O)=O,2.0,7:8,phosphate:phosphate,3-Methylphenylphosphonic acid,7:8,phosphate:phosphate,7(phosphate) > 8(phosphate)
Cc1ccc(cc1)[P](O)(O)=O,7.66,7:8,phosphate:phosphate,4-Methylphenylphosphonic acid,7:8,phosphate:phosphate,7(phosphate) > 8(phosphate)
Cc1ccc(cc1)[P](O)(O)=O,2.0,7:8,phosphate:phosphate,4-Methylphenylphosphonic acid,7:8,phosphate:phosphate,7(phosphate) > 8(phosphate)
Cc1ccc(cc1C)[P](O)(O)=O,7.72,8:9,phosphate:phosphate,"3,4-Dimethylphenylphosphonic acid",8:9,phosphate:phosphate,8(phosphate) > 9(phosphate)
Cc1ccc(cc1C)[P](O)(O)=O,2.04,8:9,phosphate:phosphate,"3,4-Dimethylphenylphosphonic acid",8:9,phosphate:phosphate,8(phosphate) > 9(phosphate)
O[P](O)(=O)c1cccc(c1)[N+]([O-])=O,6.61,0:1,phosphate:phosphate,3-Nitrophenylphosphonic acid,0:1,phosphate:phosphate,0(phosphate) > 1(phosphate)
O[P](O)(=O)c1cccc(c1)[N+]([O-])=O,1.2,0:1,phosphate:phosphate,3-Nitrophenylphosphonic acid,0:1,phosphate:phosphate,0(phosphate) > 1(phosphate)
O[P](O)(=O)c1ccc(cc1)[N+]([O-])=O,6.58,0:1,phosphate:phosphate,4-Nitrophenylphosphonic acid,0:1,phosphate:phosphate,0(phosphate) > 1(phosphate)
O[P](O)(=O)c1ccc(cc1)[N+]([O-])=O,1.2,0:1,phosphate:phosphate,4-Nitrophenylphosphonic acid,0:1,phosphate:phosphate,0(phosphate) > 1(phosphate)
O[P](O)(=O)CBr,6.24,0:1,phosphate:phosphate,Bromomethylphosphonic acid,0:1,phosphate:phosphate,0(phosphate) > 1(phosphate)
O[P](O)(=O)CBr,1.2,0:1,phosphate:phosphate,Bromomethylphosphonic acid,0:1,phosphate:phosphate,0(phosphate) > 1(phosphate)
O[P](O)(=O)C(Br)Br,5.4,0:1,phosphate:phosphate,Dibromomethylphosphonic acid,0:1,phosphate:phosphate,0(phosphate) > 1(phosphate)
O[P](O)(=O)C(Br)Br,0.8,0:1,phosphate:phosphate,Dibromomethylphosphonic acid,0:1,phosphate:phosphate,0(phosphate) > 1(phosphate)
O[P](O)(=O)CCBr,6.9,0:1,phosphate:phosphate,2-Bromoethylphosphonic acid,0:1,phosphate:phosphate,0(phosphate) > 1(phosphate)
O[P](O)(=O)CCBr,1.6,0:1,phosphate:phosphate,2-Bromoethylphosphonic acid,0:1,phosphate:phosphate,0(phosphate) > 1(phosphate)
O[P](O)(=O)CI,6.44,0:1,phosphate:phosphate,Iodomethylphosphonic acid,0:1,phosphate:phosphate,0(phosphate) > 1(phosphate)
O[P](O)(=O)CI,1.3,0:1,phosphate:phosphate,Iodomethylphosphonic acid,0:1,phosphate:phosphate,0(phosphate) > 1(phosphate)
Oc1cccc(c1)[P](O)(O)=O,10.03,0:7,phenol:phosphate,3-Hydroxyphenylphosphonic acid,0:7,phenol:phosphate,0(phenol) > 7(phosphate)
Oc1cccc(c1)[P](O)(O)=O,7.24,0:7,phenol:phosphate,3-Hydroxyphenylphosphonic acid,0:7,phenol:phosphate,0(phenol) > 7(phosphate)
Oc1cccc(c1)[P](O)(O)=O,1.8,0:7,phenol:phosphate,3-Hydroxyphenylphosphonic acid,0:7,phenol:phosphate,0(phenol) > 7(phosphate)
Oc1ccc(cc1)[P](O)(O)=O,10.56,0:7,phenol:phosphate,4-Hydroxyphenylphosphonic acid,0:7,phenol:phosphate,0(phenol) > 7(phosphate)
Oc1ccc(cc1)[P](O)(O)=O,7.69,0:7,phenol:phosphate,4-Hydroxyphenylphosphonic acid,0:7,phenol:phosphate,0(phenol) > 7(phosphate)
Oc1ccc(cc1)[P](O)(O)=O,2.0,0:7,phenol:phosphate,4-Hydroxyphenylphosphonic acid,0:7,phenol:phosphate,0(phenol) > 7(phosphate)
OC[P](O)(O)=O,6.97,0:2,alcohol:phosphate,Hydroxymethylphosphonic acid,2:0,phosphate:alcohol,2(phosphate) > 0(alcohol)
OC[P](O)(O)=O,7.01,0:2,alcohol:phosphate,Hydroxymethylphosphonic acid,2:0,phosphate:alcohol,2(phosphate) > 0(alcohol)
OC[P](O)(O)=O,7.36,0:2,alcohol:phosphate,Hydroxymethylphosphonic acid,2:0,phosphate:alcohol,2(phosphate) > 0(alcohol)
OC[P](O)(O)=O,1.7,0:2,alcohol:phosphate,Hydroxymethylphosphonic acid,2:0,phosphate:alcohol,2(phosphate) > 0(alcohol)
COc1ccccc1[P](O)(O)=O,7.9,8:9,phosphate:phosphate,2-Methoxyphenylphosphonic acid,8:9,phosphate:phosphate,8(phosphate) > 9(phosphate)
COc1ccccc1[P](O)(O)=O,2.19,8:9,phosphate:phosphate,2-Methoxyphenylphosphonic acid,8:9,phosphate:phosphate,8(phosphate) > 9(phosphate)
COc1ccc(cc1)[P](O)(O)=O,7.66,8:9,phosphate:phosphate,4-Methoxyphenylphosphonic acid,8:9,phosphate:phosphate,8(phosphate) > 9(phosphate)
COc1ccc(cc1)[P](O)(O)=O,2.05,8:9,phosphate:phosphate,4-Methoxyphenylphosphonic acid,8:9,phosphate:phosphate,8(phosphate) > 9(phosphate)
CCSC[P](O)(O)=O,7.06,4:5,phosphate:phosphate,Ethylthiomethylphosphonic acid,4:5,phosphate:phosphate,4(phosphate) > 5(phosphate)
CCSC[P](O)(O)=O,1.8,4:5,phosphate:phosphate,Ethylthiomethylphosphonic acid,4:5,phosphate:phosphate,4(phosphate) > 5(phosphate)
O[P](O)(=O)C[P](O)(O)=O,10.33,0:1:2:5,phosphate:phosphate:phosphate:phosphate,Methylenediphosphonic acid,0:1:2:5,phosphate:phosphate:phosphate:phosphate,0(phosphate) > 1(phosphate) > 2(phosphate) > 5(phosphate)
O[P](O)(=O)C[P](O)(O)=O,10.66,0:1:2:5,phosphate:phosphate:phosphate:phosphate,Methylenediphosphonic acid,0:1:2:5,phosphate:phosphate:phosphate:phosphate,0(phosphate) > 1(phosphate) > 2(phosphate) > 5(phosphate)
O[P](O)(=O)C[P](O)(O)=O,10.54,0:1:2:5,phosphate:phosphate:phosphate:phosphate,Methylenediphosphonic acid,0:1:2:5,phosphate:phosphate:phosphate:phosphate,0(phosphate) > 1(phosphate) > 2(phosphate) > 5(phosphate)
O[P](O)(=O)C[P](O)(O)=O,8.9,0:1:2:5,phosphate:phosphate:phosphate:phosphate,Methylenediphosphonic acid,0:1:2:5,phosphate:phosphate:phosphate:phosphate,0(phosphate) > 1(phosphate) > 2(phosphate) > 5(phosphate)
O[P](O)(=O)C[P](O)(O)=O,10.96,0:1:2:5,phosphate:phosphate:phosphate:phosphate,Methylenediphosphonic acid,0:1:2:5,phosphate:phosphate:phosphate:phosphate,0(phosphate) > 1(phosphate) > 2(phosphate) > 5(phosphate)
O[P](O)(=O)C[P](O)(O)=O,6.87,0:1:2:5,phosphate:phosphate:phosphate:phosphate,Methylenediphosphonic acid,0:1:2:5,phosphate:phosphate:phosphate:phosphate,0(phosphate) > 1(phosphate) > 2(phosphate) > 5(phosphate)
O[P](O)(=O)C[P](O)(O)=O,7.05,0:1:2:5,phosphate:phosphate:phosphate:phosphate,Methylenediphosphonic acid,0:1:2:5,phosphate:phosphate:phosphate:phosphate,0(phosphate) > 1(phosphate) > 2(phosphate) > 5(phosphate)
O[P](O)(=O)C[P](O)(O)=O,6.34,0:1:2:5,phosphate:phosphate:phosphate:phosphate,Methylenediphosphonic acid,0:1:2:5,phosphate:phosphate:phosphate:phosphate,0(phosphate) > 1(phosphate) > 2(phosphate) > 5(phosphate)
O[P](O)(=O)C[P](O)(O)=O,7.4,0:1:2:5,phosphate:phosphate:phosphate:phosphate,Methylenediphosphonic acid,0:1:2:5,phosphate:phosphate:phosphate:phosphate,0(phosphate) > 1(phosphate) > 2(phosphate) > 5(phosphate)
O[P](O)(=O)C[P](O)(O)=O,2.5,0:1:2:5,phosphate:phosphate:phosphate:phosphate,Methylenediphosphonic acid,0:1:2:5,phosphate:phosphate:phosphate:phosphate,0(phosphate) > 1(phosphate) > 2(phosphate) > 5(phosphate)
O[P](O)(=O)C[P](O)(O)=O,2.76,0:1:2:5,phosphate:phosphate:phosphate:phosphate,Methylenediphosphonic acid,0:1:2:5,phosphate:phosphate:phosphate:phosphate,0(phosphate) > 1(phosphate) > 2(phosphate) > 5(phosphate)
O[P](O)(=O)C[P](O)(O)=O,2.49,0:1:2:5,phosphate:phosphate:phosphate:phosphate,Methylenediphosphonic acid,0:1:2:5,phosphate:phosphate:phosphate:phosphate,0(phosphate) > 1(phosphate) > 2(phosphate) > 5(phosphate)
O[P](O)(=O)C[P](O)(O)=O,2.35,0:1:2:5,phosphate:phosphate:phosphate:phosphate,Methylenediphosphonic acid,0:1:2:5,phosphate:phosphate:phosphate:phosphate,0(phosphate) > 1(phosphate) > 2(phosphate) > 5(phosphate)
O[P](O)(=O)C[P](O)(O)=O,2.96,0:1:2:5,phosphate:phosphate:phosphate:phosphate,Methylenediphosphonic acid,0:1:2:5,phosphate:phosphate:phosphate:phosphate,0(phosphate) > 1(phosphate) > 2(phosphate) > 5(phosphate)
O[P](O)(=O)C[P](O)(O)=O,1.7,0:1:2:5,phosphate:phosphate:phosphate:phosphate,Methylenediphosphonic acid,0:1:2:5,phosphate:phosphate:phosphate:phosphate,0(phosphate) > 1(phosphate) > 2(phosphate) > 5(phosphate)
O[P](O)(=O)C[P](O)(O)=O,1.3,0:1:2:5,phosphate:phosphate:phosphate:phosphate,Methylenediphosphonic acid,0:1:2:5,phosphate:phosphate:phosphate:phosphate,0(phosphate) > 1(phosphate) > 2(phosphate) > 5(phosphate)
CC([P](O)(O)=O)[P](O)(O)=O,11.7,2:3:4:6,phosphate:phosphate:phosphate:phosphate,"Ethane-1,1-diphosphonic acid",2:3:4:6,phosphate:phosphate:phosphate:phosphate,2(phosphate) > 3(phosphate) > 4(phosphate) > 6(phosphate)
CC([P](O)(O)=O)[P](O)(O)=O,11.5,2:3:4:6,phosphate:phosphate:phosphate:phosphate,"Ethane-1,1-diphosphonic acid",2:3:4:6,phosphate:phosphate:phosphate:phosphate,2(phosphate) > 3(phosphate) > 4(phosphate) > 6(phosphate)
CC([P](O)(O)=O)[P](O)(O)=O,9.93,2:3:4:6,phosphate:phosphate:phosphate:phosphate,"Ethane-1,1-diphosphonic acid",2:3:4:6,phosphate:phosphate:phosphate:phosphate,2(phosphate) > 3(phosphate) > 4(phosphate) > 6(phosphate)
CC([P](O)(O)=O)[P](O)(O)=O,12.0,2:3:4:6,phosphate:phosphate:phosphate:phosphate,"Ethane-1,1-diphosphonic acid",2:3:4:6,phosphate:phosphate:phosphate:phosphate,2(phosphate) > 3(phosphate) > 4(phosphate) > 6(phosphate)
CC([P](O)(O)=O)[P](O)(O)=O,7.22,2:3:4:6,phosphate:phosphate:phosphate:phosphate,"Ethane-1,1-diphosphonic acid",2:3:4:6,phosphate:phosphate:phosphate:phosphate,2(phosphate) > 3(phosphate) > 4(phosphate) > 6(phosphate)
CC([P](O)(O)=O)[P](O)(O)=O,7.18,2:3:4:6,phosphate:phosphate:phosphate:phosphate,"Ethane-1,1-diphosphonic acid",2:3:4:6,phosphate:phosphate:phosphate:phosphate,2(phosphate) > 3(phosphate) > 4(phosphate) > 6(phosphate)