SMILES,pKa,Dissociable_Atoms,Functional_Group,Name
[Na+].[Na+].Oc1cc(cc(c1O)[S]([O-])(=O)=O)[S]([O-])(=O)=O,11.7,9:2,phenol:phenol,"1,2-Dihydroxybenzene-3,5-disulfonic acid (Tiron)"
[Na+].[Na+].Oc1cc(cc(c1O)[S]([O-])(=O)=O)[S]([O-])(=O)=O,11.6,9:2,phenol:phenol,"1,2-Dihydroxybenzene-3,5-disulfonic acid (Tiron)"
[Na+].[Na+].Oc1cc(cc(c1O)[S]([O-])(=O)=O)[S]([O-])(=O)=O,13.3,9:2,phenol:phenol,"1,2-Dihydroxybenzene-3,5-disulfonic acid (Tiron)"
[Na+].[Na+].Oc1cc(cc(c1O)[S]([O-])(=O)=O)[S]([O-])(=O)=O,7.62,9:2,phenol:phenol,"1,2-Dihydroxybenzene-3,5-disulfonic acid (Tiron)"
[Na+].[Na+].Oc1cc(cc(c1O)[S]([O-])(=O)=O)[S]([O-])(=O)=O,7.26,9:2,phenol:phenol,"1,2-Dihydroxybenzene-3,5-disulfonic acid (Tiron)"
[Na+].[Na+].Oc1cc(cc(c1O)[S]([O-])(=O)=O)[S]([O-])(=O)=O,7.15,9:2,phenol:phenol,"1,2-Dihydroxybenzene-3,5-disulfonic acid (Tiron)"
[Na+].[Na+].Oc1cc(cc(c1O)[S]([O-])(=O)=O)[S]([O-])(=O)=O,8.31,9:2,phenol:phenol,"1,2-Dihydroxybenzene-3,5-disulfonic acid (Tiron)"
Oc1ccc(c(O)c1)[As](O)(O)=O,14.3,0:6:9:10,phenol:phenol:alcohol:alcohol,"2,4-Dihydroxybenzenearsonic acid (4-Arsonoresorcinol)"
Oc1ccc(c(O)c1)[As](O)(O)=O,9.82,0:6:9:10,phenol:phenol:alcohol:alcohol,"2,4-Dihydroxybenzenearsonic acid (4-Arsonoresorcinol)"
Oc1ccc(c(O)c1)[As](O)(O)=O,7.56,0:6:9:10,phenol:phenol:alcohol:alcohol,"2,4-Dihydroxybenzenearsonic acid (4-Arsonoresorcinol)"
Oc1ccc(c(O)c1)[As](O)(O)=O,7.98,0:6:9:10,phenol:phenol:alcohol:alcohol,"2,4-Dihydroxybenzenearsonic acid (4-Arsonoresorcinol)"
Oc1ccc(c(O)c1)[As](O)(O)=O,4.01,0:6:9:10,phenol:phenol:alcohol:alcohol,"2,4-Dihydroxybenzenearsonic acid (4-Arsonoresorcinol)"
Oc1ccc(c(O)c1)[As](O)(O)=O,4.2,0:6:9:10,phenol:phenol:alcohol:alcohol,"2,4-Dihydroxybenzenearsonic acid (4-Arsonoresorcinol)"
OC(=O)c1cccc(O)c1O,9.84,10:8:0,phenol:phenol:carboxylic_acid,"2,3-Dihydroxybenzenecarboxylic acid (o-Pyrocatechuic acid)"
OC(=O)c1cccc(O)c1O,9.76,10:8:0,phenol:phenol:carboxylic_acid,"2,3-Dihydroxybenzenecarboxylic acid (o-Pyrocatechuic acid)"
OC(=O)c1cccc(O)c1O,2.68,10:8:0,phenol:phenol:carboxylic_acid,"2,3-Dihydroxybenzenecarboxylic acid (o-Pyrocatechuic acid)"
OC(=O)c1cccc(O)c1O,2.7,10:8:0,phenol:phenol:carboxylic_acid,"2,3-Dihydroxybenzenecarboxylic acid (o-Pyrocatechuic acid)"
OC(=O)c1cccc(O)c1O,2.91,10:8:0,phenol:phenol:carboxylic_acid,"2,3-Dihydroxybenzenecarboxylic acid (o-Pyrocatechuic acid)"
OC(=O)c1ccc(O)c(O)c1,13.0,7:9:0,phenol:phenol:carboxylic_acid,"3,4-Dihydroxybenzenecarboxylic acid (Protocatechuic acid)"
OC(=O)c1ccc(O)c(O)c1,13.1,7:9:0,phenol:phenol:carboxylic_acid,"3,4-Dihydroxybenzenecarboxylic acid (Protocatechuic acid)"
OC(=O)c1ccc(O)c(O)c1,12.8,7:9:0,phenol:phenol:carboxylic_acid,"3,4-Dihydroxybenzenecarboxylic acid (Protocatechuic acid)"
OC(=O)c1ccc(O)c(O)c1,8.75,7:9:0,phenol:phenol:carboxylic_acid,"3,4-Dihydroxybenzenecarboxylic acid (Protocatechuic acid)"
OC(=O)c1ccc(O)c(O)c1,8.83,7:9:0,phenol:phenol:carboxylic_acid,"3,4-Dihydroxybenzenecarboxylic acid (Protocatechuic acid)"
OC(=O)c1ccc(O)c(O)c1,8.67,7:9:0,phenol:phenol:carboxylic_acid,"3,4-Dihydroxybenzenecarboxylic acid (Protocatechuic acid)"
OC(=O)c1ccc(O)c(O)c1,4.3,7:9:0,phenol:phenol:carboxylic_acid,"3,4-Dihydroxybenzenecarboxylic acid (Protocatechuic acid)"
OC(=O)c1ccc(O)c(O)c1,4.35,7:9:0,phenol:phenol:carboxylic_acid,"3,4-Dihydroxybenzenecarboxylic acid (Protocatechuic acid)"
OC(=O)c1ccc(O)c(O)c1,4.33,7:9:0,phenol:phenol:carboxylic_acid,"3,4-Dihydroxybenzenecarboxylic acid (Protocatechuic acid)"
OC(=O)c1ccc(O)c(O)c1,4.25,7:9:0,phenol:phenol:carboxylic_acid,"3,4-Dihydroxybenzenecarboxylic acid (Protocatechuic acid)"
OC(=O)c1ccc(O)c(O)c1,4.49,7:9:0,phenol:phenol:carboxylic_acid,"3,4-Dihydroxybenzenecarboxylic acid (Protocatechuic acid)"
OC(=O)Cc1ccc(O)c(O)c1,13.7,0:8:10,carboxylic_acid:phenol:phenol,"3,4-Dihydroxyphenylacetic acid (Homoprotocatechuic acid)"
OC(=O)Cc1ccc(O)c(O)c1,9.41,0:8:10,carboxylic_acid:phenol:phenol,"3,4-Dihydroxyphenylacetic acid (Homoprotocatechuic acid)"
OC(=O)Cc1ccc(O)c(O)c1,4.14,0:8:10,carboxylic_acid:phenol:phenol,"3,4-Dihydroxyphenylacetic acid (Homoprotocatechuic acid)"
OC(=O)CCc1ccc(O)c(O)c1,13.7,0:9:11,carboxylic_acid:phenol:phenol,"3-(3,4-Dihydroxyphenyl)propanoic acid (3,4-Dihydroxyhydrocinnamic acid)"
OC(=O)CCc1ccc(O)c(O)c1,9.5,0:9:11,carboxylic_acid:phenol:phenol,"3-(3,4-Dihydroxyphenyl)propanoic acid (3,4-Dihydroxyhydrocinnamic acid)"
OC(=O)CCc1ccc(O)c(O)c1,4.4,0:9:11,carboxylic_acid:phenol:phenol,"3-(3,4-Dihydroxyphenyl)propanoic acid (3,4-Dihydroxyhydrocinnamic acid)"
OC(=O)\C=C/c1ccc(O)c(O)c1,12.5,0:9:11,carboxylic_acid:phenol:phenol,"trans-3-(3,4-Dihydroxyphenyl)propenoic acid (Caffeic acid)"
OC(=O)\C=C/c1ccc(O)c(O)c1,8.64,0:9:11,carboxylic_acid:phenol:phenol,"trans-3-(3,4-Dihydroxyphenyl)propenoic acid (Caffeic acid)"
OC(=O)\C=C/c1ccc(O)c(O)c1,9.07,0:9:11,carboxylic_acid:phenol:phenol,"trans-3-(3,4-Dihydroxyphenyl)propenoic acid (Caffeic acid)"
OC(=O)\C=C/c1ccc(O)c(O)c1,4.43,0:9:11,carboxylic_acid:phenol:phenol,"trans-3-(3,4-Dihydroxyphenyl)propenoic acid (Caffeic acid)"
OC(=O)\C=C/c1ccc(O)c(O)c1,4.62,0:9:11,carboxylic_acid:phenol:phenol,"trans-3-(3,4-Dihydroxyphenyl)propenoic acid (Caffeic acid)"
OC(=O)c1cc(N\N=C/2C=CC(=O)C(=C2)C(O)=O)ccc1O,12.0,0:6:16:21,carboxylic_acid:amine_secondary:carboxylic_acid:phenol,"5,5'-Azobis(2-hydroxybenzoic acid) (Olsalazine)"
OC(=O)c1cc(N\N=C/2C=CC(=O)C(=C2)C(O)=O)ccc1O,11.0,0:6:16:21,carboxylic_acid:amine_secondary:carboxylic_acid:phenol,"5,5'-Azobis(2-hydroxybenzoic acid) (Olsalazine)"
OC(=O)c1cc(N\N=C/2C=CC(=O)C(=C2)C(O)=O)ccc1O,2.85,0:6:16:21,carboxylic_acid:amine_secondary:carboxylic_acid:phenol,"5,5'-Azobis(2-hydroxybenzoic acid) (Olsalazine)"
OC(=O)c1cc(N\N=C/2C=CC(=O)C(=C2)C(O)=O)ccc1O,2.8,0:6:16:21,carboxylic_acid:amine_secondary:carboxylic_acid:phenol,"5,5'-Azobis(2-hydroxybenzoic acid) (Olsalazine)"
OC(=O)c1cc(N\N=C/2C=CC(=O)C(=C2)C(O)=O)ccc1O,2.07,0:6:16:21,carboxylic_acid:amine_secondary:carboxylic_acid:phenol,"5,5'-Azobis(2-hydroxybenzoic acid) (Olsalazine)"
OC(=O)c1cc(cc(O)c1O)[S](O)(=O)=O,2.43,10:8:0,phenol:phenol:carboxylic_acid,"2,3-Dihydroxy-5-sulfobenzoic acid"
COc1cccc(O)c1O,11.99,9:7,phenol:phenol,"1,2-Dihydroxy-3-methoxybenzene (Pyrogallol 1-methyl ether)"
COc1cccc(O)c1O,9.2,9:7,phenol:phenol,"1,2-Dihydroxy-3-methoxybenzene (Pyrogallol 1-methyl ether)"
Oc1cccc(O)c1O,14.0,8:0:6,phenol:phenol:phenol,"1,2,3-Trihydroxybenzene (Pyrogallol)"
Oc1cccc(O)c1O,11.0,8:0:6,phenol:phenol:phenol,"1,2,3-Trihydroxybenzene (Pyrogallol)"
Oc1cccc(O)c1O,11.08,8:0:6,phenol:phenol:phenol,"1,2,3-Trihydroxybenzene (Pyrogallol)"
Oc1cccc(O)c1O,11.12,8:0:6,phenol:phenol:phenol,"1,2,3-Trihydroxybenzene (Pyrogallol)"
Oc1cccc(O)c1O,8.96,8:0:6,phenol:phenol:phenol,"1,2,3-Trihydroxybenzene (Pyrogallol)"
Oc1cccc(O)c1O,8.94,8:0:6,phenol:phenol:phenol,"1,2,3-Trihydroxybenzene (Pyrogallol)"
Oc1cccc(O)c1O,8.91,8:0:6,phenol:phenol:phenol,"1,2,3-Trihydroxybenzene (Pyrogallol)"
OOc1ccc(O)cc1,11.38,0:1:5,hydroxyl_group:hydroxyl_group:phenol,"1,2,4-Trihydroxybenzene (Hydroxyquinol)"
OOc1ccc(O)cc1,9.02,0:1:5,hydroxyl_group:hydroxyl_group:phenol,"1,2,4-Trihydroxybenzene (Hydroxyquinol)"
Oc1cc(O)cc(O)c1,8.76,4:0:7,phenol:phenol:phenol,"1,3,5-Trihydroxybenzene (Phloroglucinol)"
Oc1cc(O)cc(O)c1,8.42,4:0:7,phenol:phenol:phenol,"1,3,5-Trihydroxybenzene (Phloroglucinol)"
Oc1cccc(C(=O)NCc2cc(CNC(=O)c3cccc(O)c3O)cc(CNC(=O)c4cccc(O)c4O)c2)c1O,8.4,41:0:24:22:38:36,phenol:phenol:phenol:phenol:phenol:phenol,"1,3,5-Tris(2,3-dihydroxybenzoylaminomethyl)benzene (MECAM)"
Oc1cccc(C(=O)NCc2cc(CNC(=O)c3cccc(O)c3O)cc(CNC(=O)c4cccc(O)c4O)c2)c1O,7.4,41:0:24:22:38:36,phenol:phenol:phenol:phenol:phenol:phenol,"1,3,5-Tris(2,3-dihydroxybenzoylaminomethyl)benzene (MECAM)"
Oc1cccc(C(=O)NCc2cc(CNC(=O)c3cccc(O)c3O)cc(CNC(=O)c4cccc(O)c4O)c2)c1O,5.9,41:0:24:22:38:36,phenol:phenol:phenol:phenol:phenol:phenol,"1,3,5-Tris(2,3-dihydroxybenzoylaminomethyl)benzene (MECAM)"
CN(Cc1cc(CN(C)C(=O)c2cc(cc(O)c2O)[S](O)(=O)=O)cc(CN(C)C(=O)c3cc(cc(O)c3O)[S](O)(=O)=O)c1)C(=O)c4cc(cc(O)c4O)[S](O)(=O)=O,8.54,18:16:37:35:52:50,phenol:phenol:phenol:phenol:phenol:phenol,"1,3,5-Tris(N-methyl-2,3-dihydroxy-5-sulfobenzoylaminomethyl)benzene"
CN(Cc1cc(CN(C)C(=O)c2cc(cc(O)c2O)[S](O)(=O)=O)cc(CN(C)C(=O)c3cc(cc(O)c3O)[S](O)(=O)=O)c1)C(=O)c4cc(cc(O)c4O)[S](O)(=O)=O,7.55,18:16:37:35:52:50,phenol:phenol:phenol:phenol:phenol:phenol,"1,3,5-Tris(N-methyl-2,3-dihydroxy-5-sulfobenzoylaminomethyl)benzene"
CN(Cc1cc(CN(C)C(=O)c2cc(cc(O)c2O)[S](O)(=O)=O)cc(CN(C)C(=O)c3cc(cc(O)c3O)[S](O)(=O)=O)c1)C(=O)c4cc(cc(O)c4O)[S](O)(=O)=O,6.76,18:16:37:35:52:50,phenol:phenol:phenol:phenol:phenol:phenol,"1,3,5-Tris(N-methyl-2,3-dihydroxy-5-sulfobenzoylaminomethyl)benzene"
CC(C)N(Cc1cc(CN(C(C)C)C(=O)c2cc(cc(O)c2O)[S](O)(=O)=O)cc(CN(C(C)C)C(=O)c3cc(cc(O)c3O)[S](O)(=O)=O)c1)C(=O)c4cc(cc(O)c4O)[S](O)(=O)=O,8.61,22:20:43:41:58:56,phenol:phenol:phenol:phenol:phenol:phenol,"1,3,5-Tris(N-2-propyl-2,3-dihydroxy-5-sulfobenzoylaminomethyl)benzene"
CC(C)N(Cc1cc(CN(C(C)C)C(=O)c2cc(cc(O)c2O)[S](O)(=O)=O)cc(CN(C(C)C)C(=O)c3cc(cc(O)c3O)[S](O)(=O)=O)c1)C(=O)c4cc(cc(O)c4O)[S](O)(=O)=O,7.85,22:20:43:41:58:56,phenol:phenol:phenol:phenol:phenol:phenol,"1,3,5-Tris(N-2-propyl-2,3-dihydroxy-5-sulfobenzoylaminomethyl)benzene"
CC(C)N(Cc1cc(CN(C(C)C)C(=O)c2cc(cc(O)c2O)[S](O)(=O)=O)cc(CN(C(C)C)C(=O)c3cc(cc(O)c3O)[S](O)(=O)=O)c1)C(=O)c4cc(cc(O)c4O)[S](O)(=O)=O,6.6,22:20:43:41:58:56,phenol:phenol:phenol:phenol:phenol:phenol,"1,3,5-Tris(N-2-propyl-2,3-dihydroxy-5-sulfobenzoylaminomethyl)benzene"
CC(=O)N(Cc1cc(CN(C(C)=O)C(=O)c2cc(cc(O)c2O)[S](O)(=O)=O)cc(CN(C(C)=O)C(=O)c3cc(cc(O)c3O)[S](O)(=O)=O)c1)C(=O)c4cc(cc(O)c4O)[S](O)(=O)=O,9.3,22:20:43:41:58:56,phenol:phenol:phenol:phenol:phenol:phenol,"1,3,5-Tris(N-acetyl-2,3-dihydroxy-5-sulfobenzoylaminomethyl)benzene"
CC(=O)N(Cc1cc(CN(C(C)=O)C(=O)c2cc(cc(O)c2O)[S](O)(=O)=O)cc(CN(C(C)=O)C(=O)c3cc(cc(O)c3O)[S](O)(=O)=O)c1)C(=O)c4cc(cc(O)c4O)[S](O)(=O)=O,8.4,22:20:43:41:58:56,phenol:phenol:phenol:phenol:phenol:phenol,"1,3,5-Tris(N-acetyl-2,3-dihydroxy-5-sulfobenzoylaminomethyl)benzene"
CC(=O)N(Cc1cc(CN(C(C)=O)C(=O)c2cc(cc(O)c2O)[S](O)(=O)=O)cc(CN(C(C)=O)C(=O)c3cc(cc(O)c3O)[S](O)(=O)=O)c1)C(=O)c4cc(cc(O)c4O)[S](O)(=O)=O,7.7,22:20:43:41:58:56,phenol:phenol:phenol:phenol:phenol:phenol,"1,3,5-Tris(N-acetyl-2,3-dihydroxy-5-sulfobenzoylaminomethyl)benzene"
Oc1cccc(C(=O)NC2COC(=O)C(COC(=O)C(COC2=O)NC(=O)c3cccc(O)c3O)NC(=O)c4cccc(O)c4O)c1O,8.55,47:0:34:32:45:43,phenol:phenol:phenol:phenol:phenol:phenol,"N,N',N''-Tris(2,3-dihydroxybenzoyl)cyclo(O-seryl-O-seryl-O-seryl) (Enterobactin)"
Oc1cccc(C(=O)NC2COC(=O)C(COC(=O)C(COC2=O)NC(=O)c3cccc(O)c3O)NC(=O)c4cccc(O)c4O)c1O,7.5,47:0:34:32:45:43,phenol:phenol:phenol:phenol:phenol:phenol,"N,N',N''-Tris(2,3-dihydroxybenzoyl)cyclo(O-seryl-O-seryl-O-seryl) (Enterobactin)"
Oc1cccc(C(=O)NC2COC(=O)C(COC(=O)C(COC2=O)NC(=O)c3cccc(O)c3O)NC(=O)c4cccc(O)c4O)c1O,6.0,47:0:34:32:45:43,phenol:phenol:phenol:phenol:phenol:phenol,"N,N',N''-Tris(2,3-dihydroxybenzoyl)cyclo(O-seryl-O-seryl-O-seryl) (Enterobactin)"
Oc1ccc2c(Oc3c(O)c(O)ccc3[C@]24O[S](=O)(=O)c5ccccc45)c1O,6.5,27:0:9,phenol:phenol:phenol,"2-(4,5,6-Trihydroxy-3-oxo-3-H-9-xanthenyl)benzene-1-sulfonic acid (Pyrogallol Red)"
Oc1ccc(cc1)C2(O[S](=O)(=O)c3ccccc23)c4ccc(O)cc4,7.7,0,phenol,4'-Hydroxyfuchson-2''-sulfonic acid (Phenol Red)
Oc1ccc(cc1)C2(O[S](=O)(=O)c3ccccc23)c4ccc(O)cc4,7.57,0,phenol,4'-Hydroxyfuchson-2''-sulfonic acid (Phenol Red)
Oc1ccc(cc1)C2(O[S](=O)(=O)c3ccccc23)c4ccc(O)cc4,7.5,0,phenol,4'-Hydroxyfuchson-2''-sulfonic acid (Phenol Red)
Oc1ccc(cc1)C2(O[S](=O)(=O)c3ccccc23)c4ccc(O)cc4,7.54,0,phenol,4'-Hydroxyfuchson-2''-sulfonic acid (Phenol Red)
Oc1ccc(cc1)C2(O[S](=O)(=O)c3ccccc23)c4ccc(O)cc4,8.03,0,phenol,4'-Hydroxyfuchson-2''-sulfonic acid (Phenol Red)
Cc1cc(ccc1O)C2(O[S](=O)(=O)c3ccccc23)c4ccc(O)c(C)c4,7.95,7:23,phenol:phenol,"3,3'-Dimethyl-4'-hydroxyfuchson-2''-sulfonic acid (Cresol Red)"
Cc1cc(ccc1O)C2(O[S](=O)(=O)c3ccccc23)c4ccc(O)c(C)c4,1.0,7:23,phenol:phenol,"3,3'-Dimethyl-4'-hydroxyfuchson-2''-sulfonic acid (Cresol Red)"
Oc1ccc(cc1Br)C2(O[S](=O)(=O)c3ccccc23)c4ccc(O)c(Br)c4,6.14,0,phenol,"3,3'-Dibromo-4'-hydroxyfuchson-2''-sulfonic acid (Bromophenol Red)"
Cc1cc(cc(Br)c1O)C2(O[S](=O)(=O)c3ccccc23)c4cc(C)c(O)c(Br)c4,6.2,8,phenol,"3,3'-Dibromo-5,5'-dimethyl-4'-hydroxyfuchson-2''-sulfonic acid (Bromocresol Purple)"
Cc1c(Br)c(O)c(Br)cc1C2(O[S](=O)(=O)c3ccccc23)c4cc(Br)c(O)c(Br)c4C,4.49,5,phenol,"3,3',5,5'-Tetrabromo-2,2'-dimethyl-4'-hydroxyfuchson-2''-sulfonic acid (Bromocresol Green)"
Cc1c(Br)c(O)c(Br)cc1C2(O[S](=O)(=O)c3ccccc23)c4cc(Br)c(O)c(Br)c4C,4.87,5,phenol,"3,3',5,5'-Tetrabromo-2,2'-dimethyl-4'-hydroxyfuchson-2''-sulfonic acid (Bromocresol Green)"
[Na+].[Na+].[Na+].Cc1cc(cc(C([O-])=O)c1O)C(=C/2C=C(C)C(=O)C(=C2)C([O-])=O)\c3ccccc3[S]([O-])(=O)=O,11.8,10:13:24,carboxylic_acid:phenol:carboxylic_acid,"3,3'-Dimethyl-4'-hydroxy-2''-sulfofuchson-5,5'-dicarboxylic acid (Eriochrome Cyanine R)"
[Na+].[Na+].[Na+].Cc1cc(cc(C([O-])=O)c1O)C(=C/2C=C(C)C(=O)C(=C2)C([O-])=O)\c3ccccc3[S]([O-])(=O)=O,11.85,10:13:24,carboxylic_acid:phenol:carboxylic_acid,"3,3'-Dimethyl-4'-hydroxy-2''-sulfofuchson-5,5'-dicarboxylic acid (Eriochrome Cyanine R)"
[Na+].[Na+].[Na+].Cc1cc(cc(C([O-])=O)c1O)C(=C/2C=C(C)C(=O)C(=C2)C([O-])=O)\c3ccccc3[S]([O-])(=O)=O,5.44,10:13:24,carboxylic_acid:phenol:carboxylic_acid,"3,3'-Dimethyl-4'-hydroxy-2''-sulfofuchson-5,5'-dicarboxylic acid (Eriochrome Cyanine R)"
[Na+].[Na+].[Na+].Cc1cc(cc(C([O-])=O)c1O)C(=C/2C=C(C)C(=O)C(=C2)C([O-])=O)\c3ccccc3[S]([O-])(=O)=O,5.47,10:13:24,carboxylic_acid:phenol:carboxylic_acid,"3,3'-Dimethyl-4'-hydroxy-2''-sulfofuchson-5,5'-dicarboxylic acid (Eriochrome Cyanine R)"
[Na+].[Na+].[Na+].Cc1cc(cc(C([O-])=O)c1O)C(=C/2C=C(C)C(=O)C(=C2)C([O-])=O)\c3ccccc3[S]([O-])(=O)=O,2.26,10:13:24,carboxylic_acid:phenol:carboxylic_acid,"3,3'-Dimethyl-4'-hydroxy-2''-sulfofuchson-5,5'-dicarboxylic acid (Eriochrome Cyanine R)"
[Na+].[Na+].[Na+].Cc1cc(cc(C([O-])=O)c1O)C(=C/2C=C(C)C(=O)C(=C2)C([O-])=O)\c3ccccc3[S]([O-])(=O)=O,2.23,10:13:24,carboxylic_acid:phenol:carboxylic_acid,"3,3'-Dimethyl-4'-hydroxy-2''-sulfofuchson-5,5'-dicarboxylic acid (Eriochrome Cyanine R)"
Oc1ccc(cc1O)C(=C\2C=CC(=O)C(=C2)O)/c3ccccc3[S](O)(=O)=O,12.8,0:7:16:24,phenol:phenol:alcohol:alcohol,"3,3',4'-Trihydroxyfuchson-2''-sulfonic acid (Pyrocatechol Violet)"
Oc1ccc(cc1O)C(=C\2C=CC(=O)C(=C2)O)/c3ccccc3[S](O)(=O)=O,9.76,0:7:16:24,phenol:phenol:alcohol:alcohol,"3,3',4'-Trihydroxyfuchson-2''-sulfonic acid (Pyrocatechol Violet)"
Oc1ccc(cc1O)C(=C\2C=CC(=O)C(=C2)O)/c3ccccc3[S](O)(=O)=O,7.8,0:7:16:24,phenol:phenol:alcohol:alcohol,"3,3',4'-Trihydroxyfuchson-2''-sulfonic acid (Pyrocatechol Violet)"
Oc1ccc(cc1O)C(=C\2C=CC(=O)C(=C2)O)/c3ccccc3[S](O)(=O)=O,0.8,0:7:16:24,phenol:phenol:alcohol:alcohol,"3,3',4'-Trihydroxyfuchson-2''-sulfonic acid (Pyrocatechol Violet)"
O[C@H]1Cc2c(O)cc(O)cc2O[C@@H]1c3ccc(O)c(O)c3,13.3,5:8:17:19,phenol:phenol:phenol:phenol,"2R,3S-2-(3,4-Dihydroxyphenyl)-2H-1-benzopyran-3,5,7-triol (Catechin)"
O[C@H]1Cc2c(O)cc(O)cc2O[C@@H]1c3ccc(O)c(O)c3,11.26,5:8:17:19,phenol:phenol:phenol:phenol,"2R,3S-2-(3,4-Dihydroxyphenyl)-2H-1-benzopyran-3,5,7-triol (Catechin)"
O[C@H]1Cc2c(O)cc(O)cc2O[C@@H]1c3ccc(O)c(O)c3,11.18,5:8:17:19,phenol:phenol:phenol:phenol,"2R,3S-2-(3,4-Dihydroxyphenyl)-2H-1-benzopyran-3,5,7-triol (Catechin)"
O[C@H]1Cc2c(O)cc(O)cc2O[C@@H]1c3ccc(O)c(O)c3,9.41,5:8:17:19,phenol:phenol:phenol:phenol,"2R,3S-2-(3,4-Dihydroxyphenyl)-2H-1-benzopyran-3,5,7-triol (Catechin)"
O[C@H]1Cc2c(O)cc(O)cc2O[C@@H]1c3ccc(O)c(O)c3,9.44,5:8:17:19,phenol:phenol:phenol:phenol,"2R,3S-2-(3,4-Dihydroxyphenyl)-2H-1-benzopyran-3,5,7-triol (Catechin)"
O[C@H]1Cc2c(O)cc(O)cc2O[C@@H]1c3ccc(O)c(O)c3,8.64,5:8:17:19,phenol:phenol:phenol:phenol,"2R,3S-2-(3,4-Dihydroxyphenyl)-2H-1-benzopyran-3,5,7-triol (Catechin)"
O[C@H]1Cc2c(O)cc(O)cc2O[C@@H]1c3ccc(O)c(O)c3,8.79,5:8:17:19,phenol:phenol:phenol:phenol,"2R,3S-2-(3,4-Dihydroxyphenyl)-2H-1-benzopyran-3,5,7-triol (Catechin)"
O[C@@H]1Cc2c(O)cc(O)cc2OC1c3ccc(O)c(O)c3,13.4,5:8:17:19,phenol:phenol:phenol:phenol,"2R,3R-2-(3,4-Dihydroxyphenyl)-2H-1-benzopyran-3,5,7-triol (Epicatechin)"
O[C@@H]1Cc2c(O)cc(O)cc2OC1c3ccc(O)c(O)c3,11.23,5:8:17:19,phenol:phenol:phenol:phenol,"2R,3R-2-(3,4-Dihydroxyphenyl)-2H-1-benzopyran-3,5,7-triol (Epicatechin)"
O[C@@H]1Cc2c(O)cc(O)cc2OC1c3ccc(O)c(O)c3,9.49,5:8:17:19,phenol:phenol:phenol:phenol,"2R,3R-2-(3,4-Dihydroxyphenyl)-2H-1-benzopyran-3,5,7-triol (Epicatechin)"
O[C@@H]1Cc2c(O)cc(O)cc2OC1c3ccc(O)c(O)c3,8.72,5:8:17:19,phenol:phenol:phenol:phenol,"2R,3R-2-(3,4-Dihydroxyphenyl)-2H-1-benzopyran-3,5,7-triol (Epicatechin)"
Oc1cccc2ccccc12,9.14,0,phenol,1-Naphthol
Oc1cccc2ccccc12,9.06,0,phenol,1-Naphthol
Oc1cccc2ccccc12,9.05,0,phenol,1-Naphthol
Oc1cccc2ccccc12,9.416,0,phenol,1-Naphthol
Oc1c2ccccc2ccc1[S](O)(=O)=O,9.11,0,phenol,1-Naphthol-2-sulfonic acid
Oc1c2ccccc2ccc1[S](O)(=O)=O,8.78,0,phenol,1-Naphthol-2-sulfonic acid
Oc1c2ccccc2ccc1[S](O)(=O)=O,8.64,0,phenol,1-Naphthol-2-sulfonic acid
Oc1c2ccccc2ccc1[S](O)(=O)=O,9.59,0,phenol,1-Naphthol-2-sulfonic acid
Oc1cc(cc2ccccc12)[S](O)(=O)=O,8.43,0,phenol,1-Naphthol-3-sulfonic acid
Oc1cc(cc2ccccc12)[S](O)(=O)=O,8.27,0,phenol,1-Naphthol-3-sulfonic acid
Oc1cc(cc2ccccc12)[S](O)(=O)=O,8.23,0,phenol,1-Naphthol-3-sulfonic acid
Oc1cc(cc2ccccc12)[S](O)(=O)=O,8.8,0,phenol,1-Naphthol-3-sulfonic acid
Oc1ccc(c2ccccc12)[S](O)(=O)=O,8.04,0,phenol,1-Naphthol-4-sulfonic acid
Oc1ccc(c2ccccc12)[S](O)(=O)=O,7.87,0,phenol,1-Naphthol-4-sulfonic acid
Oc1ccc(c2ccccc12)[S](O)(=O)=O,7.85,0,phenol,1-Naphthol-4-sulfonic acid
Oc1ccc(c2ccccc12)[S](O)(=O)=O,8.44,0,phenol,1-Naphthol-4-sulfonic acid
Oc1cccc2cccc(c12)[S](O)(=O)=O,12.65,0,phenol,1-Naphthol-8-sulfonic acid
Oc1cccc2cccc(c12)[S](O)(=O)=O,12.33,0,phenol,1-Naphthol-8-sulfonic acid
Oc1cccc2cccc(c12)[S](O)(=O)=O,12.19,0,phenol,1-Naphthol-8-sulfonic acid
Oc1cccc2cccc(c12)[S](O)(=O)=O,13.1,0,phenol,1-Naphthol-8-sulfonic acid
Oc1cc(cc2cc(ccc12)[S](O)(=O)=O)[S](O)(=O)=O,8.06,0,phenol,"1-Naphthol-3,6-disulfonic acid"
Oc1cc(cc2cc(ccc12)[S](O)(=O)=O)[S](O)(=O)=O,7.81,0,phenol,"1-Naphthol-3,6-disulfonic acid"
Oc1cc(cc2cc(ccc12)[S](O)(=O)=O)[S](O)(=O)=O,7.77,0,phenol,"1-Naphthol-3,6-disulfonic acid"
Oc1cc(cc2cc(ccc12)[S](O)(=O)=O)[S](O)(=O)=O,8.65,0,phenol,"1-Naphthol-3,6-disulfonic acid"
Oc1cc(cc2cccc(c12)[S](O)(=O)=O)[S](O)(=O)=O,11.49,0,phenol,"1-Naphthol-3,8-disulfonic acid"
Oc1cc(cc2cccc(c12)[S](O)(=O)=O)[S](O)(=O)=O,11.05,0,phenol,"1-Naphthol-3,8-disulfonic acid"
Oc1cc(cc2cccc(c12)[S](O)(=O)=O)[S](O)(=O)=O,10.88,0,phenol,"1-Naphthol-3,8-disulfonic acid"
Oc1cc(cc2cccc(c12)[S](O)(=O)=O)[S](O)(=O)=O,12.19,0,phenol,"1-Naphthol-3,8-disulfonic acid"
Oc1c2ccccc2ccc1[N+]([O-])=O,5.71,15,n_oxide,2-Nitro-1-naphthol
Oc1c2ccccc2ccc1[N+]([O-])=O,5.66,15,n_oxide,2-Nitro-1-naphthol
Oc1c2ccccc2ccc1[N+]([O-])=O,5.89,15,n_oxide,2-Nitro-1-naphthol
Oc1c(ccc2ccccc12)N=O,7.25,0,phenol,2-Nitroso-1-naphthol
Oc1c(ccc2ccccc12)N=O,7.21,0,phenol,2-Nitroso-1-naphthol
Oc1c(ccc2ccccc12)N=O,7.22,0,phenol,2-Nitroso-1-naphthol
Oc1c(ccc2ccccc12)N=O,7.33,0,phenol,2-Nitroso-1-naphthol
Oc1c(ccc2ccccc12)N=O,7.47,0,phenol,2-Nitroso-1-naphthol
Oc1ccc2ccccc2c1,9.31,0,phenol,2-Naphthol
Oc1ccc2ccccc2c1,9.24,0,phenol,2-Naphthol
Oc1ccc2ccccc2c1,9.25,0,phenol,2-Naphthol
Oc1ccc2ccccc2c1,9.573,0,phenol,2-Naphthol
Oc1ccc2cc(ccc2c1)[S](O)(=O)=O,8.86,0,phenol,2-Naphthol-6-sulfonic acid
Oc1ccc2cc(ccc2c1)[S](O)(=O)=O,8.77,0,phenol,2-Naphthol-6-sulfonic acid
Oc1ccc2cc(ccc2c1)[S](O)(=O)=O,8.79,0,phenol,2-Naphthol-6-sulfonic acid
Oc1ccc2cc(ccc2c1)[S](O)(=O)=O,9.19,0,phenol,2-Naphthol-6-sulfonic acid
Oc1ccc2ccc(cc2c1)[S](O)(=O)=O,9.0,0,phenol,2-Naphthol-7-sulfonic acid
Oc1ccc2ccc(cc2c1)[S](O)(=O)=O,8.9,0,phenol,2-Naphthol-7-sulfonic acid
Oc1ccc2ccc(cc2c1)[S](O)(=O)=O,8.93,0,phenol,2-Naphthol-7-sulfonic acid
Oc1ccc2ccc(cc2c1)[S](O)(=O)=O,9.37,0,phenol,2-Naphthol-7-sulfonic acid
Oc1cc2ccc(cc2cc1[S](O)(=O)=O)[S](O)(=O)=O,9.16,0,phenol,"2-Naphthol-3,6-disulfonic acid"
Oc1cc2ccc(cc2cc1[S](O)(=O)=O)[S](O)(=O)=O,8.86,0,phenol,"2-Naphthol-3,6-disulfonic acid"
Oc1cc2ccc(cc2cc1[S](O)(=O)=O)[S](O)(=O)=O,8.75,0,phenol,"2-Naphthol-3,6-disulfonic acid"
Oc1cc2ccc(cc2cc1[S](O)(=O)=O)[S](O)(=O)=O,9.79,0,phenol,"2-Naphthol-3,6-disulfonic acid"