SMILES,pKa,Dissociable_Atoms,Functional_Group,Name,Dissociable_Atoms_Ordered,Functional_Group_Ordered,Dissociation_Order
OC(=O)c1cc(cc(c1)C(O)=O)C(O)=O,3.12,0:13:10,carboxylic_acid:carboxylic_acid:carboxylic_acid,"Benzene-1,3,5-tricarboxylic acid (Trimesic acid)",0:13:10,carboxylic_acid:carboxylic_acid:carboxylic_acid,0(carboxylic_acid) > 13(carboxylic_acid) > 10(carboxylic_acid)
OC(C(CC(O)=O)C(O)=O)C(O)=O,5.73,5:8:11,carboxylic_acid:carboxylic_acid:carboxylic_acid,"DL-1-Hydroxypropane-1,2,3-tricarboxylic acid (Isocitric acid)",5:8:11,carboxylic_acid:carboxylic_acid:carboxylic_acid,5(carboxylic_acid) > 8(carboxylic_acid) > 11(carboxylic_acid)
OC(C(CC(O)=O)C(O)=O)C(O)=O,5.75,5:8:11,carboxylic_acid:carboxylic_acid:carboxylic_acid,"DL-1-Hydroxypropane-1,2,3-tricarboxylic acid (Isocitric acid)",5:8:11,carboxylic_acid:carboxylic_acid:carboxylic_acid,5(carboxylic_acid) > 8(carboxylic_acid) > 11(carboxylic_acid)
OC(C(CC(O)=O)C(O)=O)C(O)=O,5.06,5:8:11,carboxylic_acid:carboxylic_acid:carboxylic_acid,"DL-1-Hydroxypropane-1,2,3-tricarboxylic acid (Isocitric acid)",5:8:11,carboxylic_acid:carboxylic_acid:carboxylic_acid,5(carboxylic_acid) > 8(carboxylic_acid) > 11(carboxylic_acid)
OC(C(CC(O)=O)C(O)=O)C(O)=O,4.3,5:8:11,carboxylic_acid:carboxylic_acid:carboxylic_acid,"DL-1-Hydroxypropane-1,2,3-tricarboxylic acid (Isocitric acid)",5:8:11,carboxylic_acid:carboxylic_acid:carboxylic_acid,5(carboxylic_acid) > 8(carboxylic_acid) > 11(carboxylic_acid)
OC(C(CC(O)=O)C(O)=O)C(O)=O,3.73,5:8:11,carboxylic_acid:carboxylic_acid:carboxylic_acid,"DL-1-Hydroxypropane-1,2,3-tricarboxylic acid (Isocitric acid)",5:8:11,carboxylic_acid:carboxylic_acid:carboxylic_acid,5(carboxylic_acid) > 8(carboxylic_acid) > 11(carboxylic_acid)
OC(C(CC(O)=O)C(O)=O)C(O)=O,3.05,5:8:11,carboxylic_acid:carboxylic_acid:carboxylic_acid,"DL-1-Hydroxypropane-1,2,3-tricarboxylic acid (Isocitric acid)",5:8:11,carboxylic_acid:carboxylic_acid:carboxylic_acid,5(carboxylic_acid) > 8(carboxylic_acid) > 11(carboxylic_acid)
OC(C(CC(O)=O)C(O)=O)C(O)=O,2.29,5:8:11,carboxylic_acid:carboxylic_acid:carboxylic_acid,"DL-1-Hydroxypropane-1,2,3-tricarboxylic acid (Isocitric acid)",5:8:11,carboxylic_acid:carboxylic_acid:carboxylic_acid,5(carboxylic_acid) > 8(carboxylic_acid) > 11(carboxylic_acid)
OC(=O)CC(O)(CC(O)=O)C(O)=O,5.65,0:8:11,carboxylic_acid:carboxylic_acid:carboxylic_acid,"2-Hydroxypropane-1,2,3-tricarboxylic acid (Citric acid)",0:8:11,carboxylic_acid:carboxylic_acid:carboxylic_acid,0(carboxylic_acid) > 8(carboxylic_acid) > 11(carboxylic_acid)
OC(=O)CC(O)(CC(O)=O)C(O)=O,5.7,0:8:11,carboxylic_acid:carboxylic_acid:carboxylic_acid,"2-Hydroxypropane-1,2,3-tricarboxylic acid (Citric acid)",0:8:11,carboxylic_acid:carboxylic_acid:carboxylic_acid,0(carboxylic_acid) > 8(carboxylic_acid) > 11(carboxylic_acid)
OC(=O)CC(O)(CC(O)=O)C(O)=O,5.81,0:8:11,carboxylic_acid:carboxylic_acid:carboxylic_acid,"2-Hydroxypropane-1,2,3-tricarboxylic acid (Citric acid)",0:8:11,carboxylic_acid:carboxylic_acid:carboxylic_acid,0(carboxylic_acid) > 8(carboxylic_acid) > 11(carboxylic_acid)
OC(=O)CC(O)(CC(O)=O)C(O)=O,5.55,0:8:11,carboxylic_acid:carboxylic_acid:carboxylic_acid,"2-Hydroxypropane-1,2,3-tricarboxylic acid (Citric acid)",0:8:11,carboxylic_acid:carboxylic_acid:carboxylic_acid,0(carboxylic_acid) > 8(carboxylic_acid) > 11(carboxylic_acid)
OC(=O)CC(O)(CC(O)=O)C(O)=O,5.63,0:8:11,carboxylic_acid:carboxylic_acid:carboxylic_acid,"2-Hydroxypropane-1,2,3-tricarboxylic acid (Citric acid)",0:8:11,carboxylic_acid:carboxylic_acid:carboxylic_acid,0(carboxylic_acid) > 8(carboxylic_acid) > 11(carboxylic_acid)
OC(=O)CC(O)(CC(O)=O)C(O)=O,5.77,0:8:11,carboxylic_acid:carboxylic_acid:carboxylic_acid,"2-Hydroxypropane-1,2,3-tricarboxylic acid (Citric acid)",0:8:11,carboxylic_acid:carboxylic_acid:carboxylic_acid,0(carboxylic_acid) > 8(carboxylic_acid) > 11(carboxylic_acid)
OC(=O)CC(O)(CC(O)=O)C(O)=O,5.27,0:8:11,carboxylic_acid:carboxylic_acid:carboxylic_acid,"2-Hydroxypropane-1,2,3-tricarboxylic acid (Citric acid)",0:8:11,carboxylic_acid:carboxylic_acid:carboxylic_acid,0(carboxylic_acid) > 8(carboxylic_acid) > 11(carboxylic_acid)
OC(=O)CC(O)(CC(O)=O)C(O)=O,5.39,0:8:11,carboxylic_acid:carboxylic_acid:carboxylic_acid,"2-Hydroxypropane-1,2,3-tricarboxylic acid (Citric acid)",0:8:11,carboxylic_acid:carboxylic_acid:carboxylic_acid,0(carboxylic_acid) > 8(carboxylic_acid) > 11(carboxylic_acid)
OC(=O)CC(O)(CC(O)=O)C(O)=O,5.13,0:8:11,carboxylic_acid:carboxylic_acid:carboxylic_acid,"2-Hydroxypropane-1,2,3-tricarboxylic acid (Citric acid)",0:8:11,carboxylic_acid:carboxylic_acid:carboxylic_acid,0(carboxylic_acid) > 8(carboxylic_acid) > 11(carboxylic_acid)
OC(=O)CC(O)(CC(O)=O)C(O)=O,5.33,0:8:11,carboxylic_acid:carboxylic_acid:carboxylic_acid,"2-Hydroxypropane-1,2,3-tricarboxylic acid (Citric acid)",0:8:11,carboxylic_acid:carboxylic_acid:carboxylic_acid,0(carboxylic_acid) > 8(carboxylic_acid) > 11(carboxylic_acid)
OC(=O)CC(O)(CC(O)=O)C(O)=O,5.08,0:8:11,carboxylic_acid:carboxylic_acid:carboxylic_acid,"2-Hydroxypropane-1,2,3-tricarboxylic acid (Citric acid)",0:8:11,carboxylic_acid:carboxylic_acid:carboxylic_acid,0(carboxylic_acid) > 8(carboxylic_acid) > 11(carboxylic_acid)
OC(=O)CC(O)(CC(O)=O)C(O)=O,5.1,0:8:11,carboxylic_acid:carboxylic_acid:carboxylic_acid,"2-Hydroxypropane-1,2,3-tricarboxylic acid (Citric acid)",0:8:11,carboxylic_acid:carboxylic_acid:carboxylic_acid,0(carboxylic_acid) > 8(carboxylic_acid) > 11(carboxylic_acid)
OC(=O)CC(O)(CC(O)=O)C(O)=O,5.12,0:8:11,carboxylic_acid:carboxylic_acid:carboxylic_acid,"2-Hydroxypropane-1,2,3-tricarboxylic acid (Citric acid)",0:8:11,carboxylic_acid:carboxylic_acid:carboxylic_acid,0(carboxylic_acid) > 8(carboxylic_acid) > 11(carboxylic_acid)
OC(=O)CC(O)(CC(O)=O)C(O)=O,6.396,0:8:11,carboxylic_acid:carboxylic_acid:carboxylic_acid,"2-Hydroxypropane-1,2,3-tricarboxylic acid (Citric acid)",0:8:11,carboxylic_acid:carboxylic_acid:carboxylic_acid,0(carboxylic_acid) > 8(carboxylic_acid) > 11(carboxylic_acid)
OC(=O)CC(O)(CC(O)=O)C(O)=O,4.35,0:8:11,carboxylic_acid:carboxylic_acid:carboxylic_acid,"2-Hydroxypropane-1,2,3-tricarboxylic acid (Citric acid)",0:8:11,carboxylic_acid:carboxylic_acid:carboxylic_acid,0(carboxylic_acid) > 8(carboxylic_acid) > 11(carboxylic_acid)
OC(=O)CC(O)(CC(O)=O)C(O)=O,4.28,0:8:11,carboxylic_acid:carboxylic_acid:carboxylic_acid,"2-Hydroxypropane-1,2,3-tricarboxylic acid (Citric acid)",0:8:11,carboxylic_acid:carboxylic_acid:carboxylic_acid,0(carboxylic_acid) > 8(carboxylic_acid) > 11(carboxylic_acid)
OC(=O)CC(O)(CC(O)=O)C(O)=O,4.13,0:8:11,carboxylic_acid:carboxylic_acid:carboxylic_acid,"2-Hydroxypropane-1,2,3-tricarboxylic acid (Citric acid)",0:8:11,carboxylic_acid:carboxylic_acid:carboxylic_acid,0(carboxylic_acid) > 8(carboxylic_acid) > 11(carboxylic_acid)
OC(=O)CC(O)(CC(O)=O)C(O)=O,4.07,0:8:11,carboxylic_acid:carboxylic_acid:carboxylic_acid,"2-Hydroxypropane-1,2,3-tricarboxylic acid (Citric acid)",0:8:11,carboxylic_acid:carboxylic_acid:carboxylic_acid,0(carboxylic_acid) > 8(carboxylic_acid) > 11(carboxylic_acid)
OC(=O)CC(O)(CC(O)=O)C(O)=O,4.09,0:8:11,carboxylic_acid:carboxylic_acid:carboxylic_acid,"2-Hydroxypropane-1,2,3-tricarboxylic acid (Citric acid)",0:8:11,carboxylic_acid:carboxylic_acid:carboxylic_acid,0(carboxylic_acid) > 8(carboxylic_acid) > 11(carboxylic_acid)
OC(=O)CC(O)(CC(O)=O)C(O)=O,4.1,0:8:11,carboxylic_acid:carboxylic_acid:carboxylic_acid,"2-Hydroxypropane-1,2,3-tricarboxylic acid (Citric acid)",0:8:11,carboxylic_acid:carboxylic_acid:carboxylic_acid,0(carboxylic_acid) > 8(carboxylic_acid) > 11(carboxylic_acid)
OC(=O)CC(O)(CC(O)=O)C(O)=O,4.18,0:8:11,carboxylic_acid:carboxylic_acid:carboxylic_acid,"2-Hydroxypropane-1,2,3-tricarboxylic acid (Citric acid)",0:8:11,carboxylic_acid:carboxylic_acid:carboxylic_acid,0(carboxylic_acid) > 8(carboxylic_acid) > 11(carboxylic_acid)
OC(=O)CC(O)(CC(O)=O)C(O)=O,4.761,0:8:11,carboxylic_acid:carboxylic_acid:carboxylic_acid,"2-Hydroxypropane-1,2,3-tricarboxylic acid (Citric acid)",0:8:11,carboxylic_acid:carboxylic_acid:carboxylic_acid,0(carboxylic_acid) > 8(carboxylic_acid) > 11(carboxylic_acid)
OC(=O)CC(O)(CC(O)=O)C(O)=O,2.9,0:8:11,carboxylic_acid:carboxylic_acid:carboxylic_acid,"2-Hydroxypropane-1,2,3-tricarboxylic acid (Citric acid)",0:8:11,carboxylic_acid:carboxylic_acid:carboxylic_acid,0(carboxylic_acid) > 8(carboxylic_acid) > 11(carboxylic_acid)
OC(=O)CC(O)(CC(O)=O)C(O)=O,2.87,0:8:11,carboxylic_acid:carboxylic_acid:carboxylic_acid,"2-Hydroxypropane-1,2,3-tricarboxylic acid (Citric acid)",0:8:11,carboxylic_acid:carboxylic_acid:carboxylic_acid,0(carboxylic_acid) > 8(carboxylic_acid) > 11(carboxylic_acid)
OC(=O)CC(O)(CC(O)=O)C(O)=O,2.78,0:8:11,carboxylic_acid:carboxylic_acid:carboxylic_acid,"2-Hydroxypropane-1,2,3-tricarboxylic acid (Citric acid)",0:8:11,carboxylic_acid:carboxylic_acid:carboxylic_acid,0(carboxylic_acid) > 8(carboxylic_acid) > 11(carboxylic_acid)
OC(=O)CC(O)(CC(O)=O)C(O)=O,2.81,0:8:11,carboxylic_acid:carboxylic_acid:carboxylic_acid,"2-Hydroxypropane-1,2,3-tricarboxylic acid (Citric acid)",0:8:11,carboxylic_acid:carboxylic_acid:carboxylic_acid,0(carboxylic_acid) > 8(carboxylic_acid) > 11(carboxylic_acid)
OC(=O)CC(O)(CC(O)=O)C(O)=O,2.82,0:8:11,carboxylic_acid:carboxylic_acid:carboxylic_acid,"2-Hydroxypropane-1,2,3-tricarboxylic acid (Citric acid)",0:8:11,carboxylic_acid:carboxylic_acid:carboxylic_acid,0(carboxylic_acid) > 8(carboxylic_acid) > 11(carboxylic_acid)
OC(=O)CC(O)(CC(O)=O)C(O)=O,2.91,0:8:11,carboxylic_acid:carboxylic_acid:carboxylic_acid,"2-Hydroxypropane-1,2,3-tricarboxylic acid (Citric acid)",0:8:11,carboxylic_acid:carboxylic_acid:carboxylic_acid,0(carboxylic_acid) > 8(carboxylic_acid) > 11(carboxylic_acid)
OC(=O)CC(O)(CC(O)=O)C(O)=O,3.128,0:8:11,carboxylic_acid:carboxylic_acid:carboxylic_acid,"2-Hydroxypropane-1,2,3-tricarboxylic acid (Citric acid)",0:8:11,carboxylic_acid:carboxylic_acid:carboxylic_acid,0(carboxylic_acid) > 8(carboxylic_acid) > 11(carboxylic_acid)
OC(=O)c1cc(C(O)=O)c(C(O)=O)c(C(O)=O)c1C(O)=O,5.72,0:7:11:15:19,carboxylic_acid:carboxylic_acid:carboxylic_acid:carboxylic_acid:carboxylic_acid,Benzenepentacarboxylic acid,0:7:11:15:19,carboxylic_acid:carboxylic_acid:carboxylic_acid:carboxylic_acid:carboxylic_acid,0(carboxylic_acid) > 7(carboxylic_acid) > 11(carboxylic_acid) > 15(carboxylic_acid) > 19(carboxylic_acid)
OC(=O)c1cc(C(O)=O)c(C(O)=O)c(C(O)=O)c1C(O)=O,5.82,0:7:11:15:19,carboxylic_acid:carboxylic_acid:carboxylic_acid:carboxylic_acid:carboxylic_acid,Benzenepentacarboxylic acid,0:7:11:15:19,carboxylic_acid:carboxylic_acid:carboxylic_acid:carboxylic_acid:carboxylic_acid,0(carboxylic_acid) > 7(carboxylic_acid) > 11(carboxylic_acid) > 15(carboxylic_acid) > 19(carboxylic_acid)
OC(=O)c1cc(C(O)=O)c(C(O)=O)c(C(O)=O)c1C(O)=O,6.56,0:7:11:15:19,carboxylic_acid:carboxylic_acid:carboxylic_acid:carboxylic_acid:carboxylic_acid,Benzenepentacarboxylic acid,0:7:11:15:19,carboxylic_acid:carboxylic_acid:carboxylic_acid:carboxylic_acid:carboxylic_acid,0(carboxylic_acid) > 7(carboxylic_acid) > 11(carboxylic_acid) > 15(carboxylic_acid) > 19(carboxylic_acid)
OC(=O)c1cc(C(O)=O)c(C(O)=O)c(C(O)=O)c1C(O)=O,5.3,0:7:11:15:19,carboxylic_acid:carboxylic_acid:carboxylic_acid:carboxylic_acid:carboxylic_acid,Benzenepentacarboxylic acid,0:7:11:15:19,carboxylic_acid:carboxylic_acid:carboxylic_acid:carboxylic_acid:carboxylic_acid,0(carboxylic_acid) > 7(carboxylic_acid) > 11(carboxylic_acid) > 15(carboxylic_acid) > 19(carboxylic_acid)
OC(=O)c1cc(C(O)=O)c(C(O)=O)c(C(O)=O)c1C(O)=O,6.51,0:7:11:15:19,carboxylic_acid:carboxylic_acid:carboxylic_acid:carboxylic_acid:carboxylic_acid,Benzenepentacarboxylic acid,0:7:11:15:19,carboxylic_acid:carboxylic_acid:carboxylic_acid:carboxylic_acid:carboxylic_acid,0(carboxylic_acid) > 7(carboxylic_acid) > 11(carboxylic_acid) > 15(carboxylic_acid) > 19(carboxylic_acid)
OC(=O)c1cc(C(O)=O)c(C(O)=O)c(C(O)=O)c1C(O)=O,7.43,0:7:11:15:19,carboxylic_acid:carboxylic_acid:carboxylic_acid:carboxylic_acid:carboxylic_acid,Benzenepentacarboxylic acid,0:7:11:15:19,carboxylic_acid:carboxylic_acid:carboxylic_acid:carboxylic_acid:carboxylic_acid,0(carboxylic_acid) > 7(carboxylic_acid) > 11(carboxylic_acid) > 15(carboxylic_acid) > 19(carboxylic_acid)
OC(=O)c1cc(C(O)=O)c(C(O)=O)c(C(O)=O)c1C(O)=O,4.63,0:7:11:15:19,carboxylic_acid:carboxylic_acid:carboxylic_acid:carboxylic_acid:carboxylic_acid,Benzenepentacarboxylic acid,0:7:11:15:19,carboxylic_acid:carboxylic_acid:carboxylic_acid:carboxylic_acid:carboxylic_acid,0(carboxylic_acid) > 7(carboxylic_acid) > 11(carboxylic_acid) > 15(carboxylic_acid) > 19(carboxylic_acid)
OC(=O)c1cc(C(O)=O)c(C(O)=O)c(C(O)=O)c1C(O)=O,4.76,0:7:11:15:19,carboxylic_acid:carboxylic_acid:carboxylic_acid:carboxylic_acid:carboxylic_acid,Benzenepentacarboxylic acid,0:7:11:15:19,carboxylic_acid:carboxylic_acid:carboxylic_acid:carboxylic_acid:carboxylic_acid,0(carboxylic_acid) > 7(carboxylic_acid) > 11(carboxylic_acid) > 15(carboxylic_acid) > 19(carboxylic_acid)
OC(=O)c1cc(C(O)=O)c(C(O)=O)c(C(O)=O)c1C(O)=O,5.17,0:7:11:15:19,carboxylic_acid:carboxylic_acid:carboxylic_acid:carboxylic_acid:carboxylic_acid,Benzenepentacarboxylic acid,0:7:11:15:19,carboxylic_acid:carboxylic_acid:carboxylic_acid:carboxylic_acid:carboxylic_acid,0(carboxylic_acid) > 7(carboxylic_acid) > 11(carboxylic_acid) > 15(carboxylic_acid) > 19(carboxylic_acid)
OC(=O)c1cc(C(O)=O)c(C(O)=O)c(C(O)=O)c1C(O)=O,4.23,0:7:11:15:19,carboxylic_acid:carboxylic_acid:carboxylic_acid:carboxylic_acid:carboxylic_acid,Benzenepentacarboxylic acid,0:7:11:15:19,carboxylic_acid:carboxylic_acid:carboxylic_acid:carboxylic_acid:carboxylic_acid,0(carboxylic_acid) > 7(carboxylic_acid) > 11(carboxylic_acid) > 15(carboxylic_acid) > 19(carboxylic_acid)
OC(=O)c1cc(C(O)=O)c(C(O)=O)c(C(O)=O)c1C(O)=O,5.14,0:7:11:15:19,carboxylic_acid:carboxylic_acid:carboxylic_acid:carboxylic_acid:carboxylic_acid,Benzenepentacarboxylic acid,0:7:11:15:19,carboxylic_acid:carboxylic_acid:carboxylic_acid:carboxylic_acid:carboxylic_acid,0(carboxylic_acid) > 7(carboxylic_acid) > 11(carboxylic_acid) > 15(carboxylic_acid) > 19(carboxylic_acid)
OC(=O)c1cc(C(O)=O)c(C(O)=O)c(C(O)=O)c1C(O)=O,5.87,0:7:11:15:19,carboxylic_acid:carboxylic_acid:carboxylic_acid:carboxylic_acid:carboxylic_acid,Benzenepentacarboxylic acid,0:7:11:15:19,carboxylic_acid:carboxylic_acid:carboxylic_acid:carboxylic_acid:carboxylic_acid,0(carboxylic_acid) > 7(carboxylic_acid) > 11(carboxylic_acid) > 15(carboxylic_acid) > 19(carboxylic_acid)
OC(=O)c1cc(C(O)=O)c(C(O)=O)c(C(O)=O)c1C(O)=O,3.37,0:7:11:15:19,carboxylic_acid:carboxylic_acid:carboxylic_acid:carboxylic_acid:carboxylic_acid,Benzenepentacarboxylic acid,0:7:11:15:19,carboxylic_acid:carboxylic_acid:carboxylic_acid:carboxylic_acid:carboxylic_acid,0(carboxylic_acid) > 7(carboxylic_acid) > 11(carboxylic_acid) > 15(carboxylic_acid) > 19(carboxylic_acid)
OC(=O)c1cc(C(O)=O)c(C(O)=O)c(C(O)=O)c1C(O)=O,3.72,0:7:11:15:19,carboxylic_acid:carboxylic_acid:carboxylic_acid:carboxylic_acid:carboxylic_acid,Benzenepentacarboxylic acid,0:7:11:15:19,carboxylic_acid:carboxylic_acid:carboxylic_acid:carboxylic_acid:carboxylic_acid,0(carboxylic_acid) > 7(carboxylic_acid) > 11(carboxylic_acid) > 15(carboxylic_acid) > 19(carboxylic_acid)
OC(=O)c1cc(C(O)=O)c(C(O)=O)c(C(O)=O)c1C(O)=O,3.87,0:7:11:15:19,carboxylic_acid:carboxylic_acid:carboxylic_acid:carboxylic_acid:carboxylic_acid,Benzenepentacarboxylic acid,0:7:11:15:19,carboxylic_acid:carboxylic_acid:carboxylic_acid:carboxylic_acid:carboxylic_acid,0(carboxylic_acid) > 7(carboxylic_acid) > 11(carboxylic_acid) > 15(carboxylic_acid) > 19(carboxylic_acid)
OC(=O)c1cc(C(O)=O)c(C(O)=O)c(C(O)=O)c1C(O)=O,3.25,0:7:11:15:19,carboxylic_acid:carboxylic_acid:carboxylic_acid:carboxylic_acid:carboxylic_acid,Benzenepentacarboxylic acid,0:7:11:15:19,carboxylic_acid:carboxylic_acid:carboxylic_acid:carboxylic_acid:carboxylic_acid,0(carboxylic_acid) > 7(carboxylic_acid) > 11(carboxylic_acid) > 15(carboxylic_acid) > 19(carboxylic_acid)
OC(=O)c1cc(C(O)=O)c(C(O)=O)c(C(O)=O)c1C(O)=O,3.86,0:7:11:15:19,carboxylic_acid:carboxylic_acid:carboxylic_acid:carboxylic_acid:carboxylic_acid,Benzenepentacarboxylic acid,0:7:11:15:19,carboxylic_acid:carboxylic_acid:carboxylic_acid:carboxylic_acid:carboxylic_acid,0(carboxylic_acid) > 7(carboxylic_acid) > 11(carboxylic_acid) > 15(carboxylic_acid) > 19(carboxylic_acid)
OC(=O)c1cc(C(O)=O)c(C(O)=O)c(C(O)=O)c1C(O)=O,4.39,0:7:11:15:19,carboxylic_acid:carboxylic_acid:carboxylic_acid:carboxylic_acid:carboxylic_acid,Benzenepentacarboxylic acid,0:7:11:15:19,carboxylic_acid:carboxylic_acid:carboxylic_acid:carboxylic_acid:carboxylic_acid,0(carboxylic_acid) > 7(carboxylic_acid) > 11(carboxylic_acid) > 15(carboxylic_acid) > 19(carboxylic_acid)
OC(=O)c1cc(C(O)=O)c(C(O)=O)c(C(O)=O)c1C(O)=O,2.39,0:7:11:15:19,carboxylic_acid:carboxylic_acid:carboxylic_acid:carboxylic_acid:carboxylic_acid,Benzenepentacarboxylic acid,0:7:11:15:19,carboxylic_acid:carboxylic_acid:carboxylic_acid:carboxylic_acid:carboxylic_acid,0(carboxylic_acid) > 7(carboxylic_acid) > 11(carboxylic_acid) > 15(carboxylic_acid) > 19(carboxylic_acid)
OC(=O)c1cc(C(O)=O)c(C(O)=O)c(C(O)=O)c1C(O)=O,2.64,0:7:11:15:19,carboxylic_acid:carboxylic_acid:carboxylic_acid:carboxylic_acid:carboxylic_acid,Benzenepentacarboxylic acid,0:7:11:15:19,carboxylic_acid:carboxylic_acid:carboxylic_acid:carboxylic_acid:carboxylic_acid,0(carboxylic_acid) > 7(carboxylic_acid) > 11(carboxylic_acid) > 15(carboxylic_acid) > 19(carboxylic_acid)
OC(=O)c1cc(C(O)=O)c(C(O)=O)c(C(O)=O)c1C(O)=O,2.2,0:7:11:15:19,carboxylic_acid:carboxylic_acid:carboxylic_acid:carboxylic_acid:carboxylic_acid,Benzenepentacarboxylic acid,0:7:11:15:19,carboxylic_acid:carboxylic_acid:carboxylic_acid:carboxylic_acid:carboxylic_acid,0(carboxylic_acid) > 7(carboxylic_acid) > 11(carboxylic_acid) > 15(carboxylic_acid) > 19(carboxylic_acid)
OC(=O)c1cc(C(O)=O)c(C(O)=O)c(C(O)=O)c1C(O)=O,2.66,0:7:11:15:19,carboxylic_acid:carboxylic_acid:carboxylic_acid:carboxylic_acid:carboxylic_acid,Benzenepentacarboxylic acid,0:7:11:15:19,carboxylic_acid:carboxylic_acid:carboxylic_acid:carboxylic_acid:carboxylic_acid,0(carboxylic_acid) > 7(carboxylic_acid) > 11(carboxylic_acid) > 15(carboxylic_acid) > 19(carboxylic_acid)
OC(=O)c1cc(C(O)=O)c(C(O)=O)c(C(O)=O)c1C(O)=O,2.99,0:7:11:15:19,carboxylic_acid:carboxylic_acid:carboxylic_acid:carboxylic_acid:carboxylic_acid,Benzenepentacarboxylic acid,0:7:11:15:19,carboxylic_acid:carboxylic_acid:carboxylic_acid:carboxylic_acid:carboxylic_acid,0(carboxylic_acid) > 7(carboxylic_acid) > 11(carboxylic_acid) > 15(carboxylic_acid) > 19(carboxylic_acid)
OC(=O)c1cc(C(O)=O)c(C(O)=O)c(C(O)=O)c1C(O)=O,1.64,0:7:11:15:19,carboxylic_acid:carboxylic_acid:carboxylic_acid:carboxylic_acid:carboxylic_acid,Benzenepentacarboxylic acid,0:7:11:15:19,carboxylic_acid:carboxylic_acid:carboxylic_acid:carboxylic_acid:carboxylic_acid,0(carboxylic_acid) > 7(carboxylic_acid) > 11(carboxylic_acid) > 15(carboxylic_acid) > 19(carboxylic_acid)
OC(=O)c1cc(C(O)=O)c(C(O)=O)c(C(O)=O)c1C(O)=O,1.26,0:7:11:15:19,carboxylic_acid:carboxylic_acid:carboxylic_acid:carboxylic_acid:carboxylic_acid,Benzenepentacarboxylic acid,0:7:11:15:19,carboxylic_acid:carboxylic_acid:carboxylic_acid:carboxylic_acid:carboxylic_acid,0(carboxylic_acid) > 7(carboxylic_acid) > 11(carboxylic_acid) > 15(carboxylic_acid) > 19(carboxylic_acid)
OC(=O)c1cc(C(O)=O)c(C(O)=O)c(C(O)=O)c1C(O)=O,1.75,0:7:11:15:19,carboxylic_acid:carboxylic_acid:carboxylic_acid:carboxylic_acid:carboxylic_acid,Benzenepentacarboxylic acid,0:7:11:15:19,carboxylic_acid:carboxylic_acid:carboxylic_acid:carboxylic_acid:carboxylic_acid,0(carboxylic_acid) > 7(carboxylic_acid) > 11(carboxylic_acid) > 15(carboxylic_acid) > 19(carboxylic_acid)
OC(=O)c1cc(C(O)=O)c(C(O)=O)c(C(O)=O)c1C(O)=O,1.88,0:7:11:15:19,carboxylic_acid:carboxylic_acid:carboxylic_acid:carboxylic_acid:carboxylic_acid,Benzenepentacarboxylic acid,0:7:11:15:19,carboxylic_acid:carboxylic_acid:carboxylic_acid:carboxylic_acid:carboxylic_acid,0(carboxylic_acid) > 7(carboxylic_acid) > 11(carboxylic_acid) > 15(carboxylic_acid) > 19(carboxylic_acid)