SMILES,pKa,Dissociable_Atoms,Functional_Group,Name,Dissociable_Atoms_Ordered,Functional_Group_Ordered,Dissociation_Order
OC(=O)CN(CC(O)=O)c1ccccc1,4.98,0:7,carboxylic_acid:carboxylic_acid,N-Phenyliminodiacetic acid,0:7,carboxylic_acid:carboxylic_acid,0(carboxylic_acid) > 7(carboxylic_acid)
OC(=O)CN(CC(O)=O)c1ccccc1,5.02,0:7,carboxylic_acid:carboxylic_acid,N-Phenyliminodiacetic acid,0:7,carboxylic_acid:carboxylic_acid,0(carboxylic_acid) > 7(carboxylic_acid)
OC(=O)CN(CC(O)=O)c1ccccc1,5.04,0:7,carboxylic_acid:carboxylic_acid,N-Phenyliminodiacetic acid,0:7,carboxylic_acid:carboxylic_acid,0(carboxylic_acid) > 7(carboxylic_acid)
OC(=O)CN(CC(O)=O)c1ccccc1,2.4,0:7,carboxylic_acid:carboxylic_acid,N-Phenyliminodiacetic acid,0:7,carboxylic_acid:carboxylic_acid,0(carboxylic_acid) > 7(carboxylic_acid)
OC(=O)CN(CC(O)=O)c1ccccc1[S](O)(=O)=O,6.29,0:7,carboxylic_acid:carboxylic_acid,N-(2-Sulfophenyl)iminodiacetic acid,0:7,carboxylic_acid:carboxylic_acid,0(carboxylic_acid) > 7(carboxylic_acid)
OC(=O)CN(CC(O)=O)c1ccccc1[S](O)(=O)=O,3.4,0:7,carboxylic_acid:carboxylic_acid,N-(2-Sulfophenyl)iminodiacetic acid,0:7,carboxylic_acid:carboxylic_acid,0(carboxylic_acid) > 7(carboxylic_acid)
OC(=O)CN(CC(O)=O)c1cccc(c1)[S](O)(=O)=O,4.79,0:7,carboxylic_acid:carboxylic_acid,N-(3-Sulfophenyl)iminodiacetic acid,0:7,carboxylic_acid:carboxylic_acid,0(carboxylic_acid) > 7(carboxylic_acid)
OC(=O)CN(CC(O)=O)c1cccc(c1)[S](O)(=O)=O,2.36,0:7,carboxylic_acid:carboxylic_acid,N-(3-Sulfophenyl)iminodiacetic acid,0:7,carboxylic_acid:carboxylic_acid,0(carboxylic_acid) > 7(carboxylic_acid)
OC(=O)CN(CC(O)=O)c1ccc(cc1)[S](O)(=O)=O,4.54,0:7,carboxylic_acid:carboxylic_acid,N-(4-Sulfophenyl)iminodiacetic acid,0:7,carboxylic_acid:carboxylic_acid,0(carboxylic_acid) > 7(carboxylic_acid)
OC(=O)CN(CC(O)=O)c1ccc(cc1)[S](O)(=O)=O,2.31,0:7,carboxylic_acid:carboxylic_acid,N-(4-Sulfophenyl)iminodiacetic acid,0:7,carboxylic_acid:carboxylic_acid,0(carboxylic_acid) > 7(carboxylic_acid)
OC(=O)CN(CC(O)=O)c1ccc(c2ccccc12)[S](O)(=O)=O,3.92,0:7,carboxylic_acid:carboxylic_acid,N-(4-Sulfo-1-naphthyl)iminodiacetic acid,0:7,carboxylic_acid:carboxylic_acid,0(carboxylic_acid) > 7(carboxylic_acid)
OC(=O)CN(CC(O)=O)c1ccc(c2ccccc12)[S](O)(=O)=O,2.76,0:7,carboxylic_acid:carboxylic_acid,N-(4-Sulfo-1-naphthyl)iminodiacetic acid,0:7,carboxylic_acid:carboxylic_acid,0(carboxylic_acid) > 7(carboxylic_acid)
OC(=O)CN(CC(O)=O)c1ccccc1C(O)=O,7.73,0:7:16,carboxylic_acid:carboxylic_acid:carboxylic_acid,N-(2-Carboxyphenyl)iminodiacetic acid,0:7:16,carboxylic_acid:carboxylic_acid:carboxylic_acid,0(carboxylic_acid) > 7(carboxylic_acid) > 16(carboxylic_acid)
OC(=O)CN(CC(O)=O)c1ccccc1C(O)=O,7.75,0:7:16,carboxylic_acid:carboxylic_acid:carboxylic_acid,N-(2-Carboxyphenyl)iminodiacetic acid,0:7:16,carboxylic_acid:carboxylic_acid:carboxylic_acid,0(carboxylic_acid) > 7(carboxylic_acid) > 16(carboxylic_acid)
OC(=O)CN(CC(O)=O)c1ccccc1C(O)=O,2.99,0:7:16,carboxylic_acid:carboxylic_acid:carboxylic_acid,N-(2-Carboxyphenyl)iminodiacetic acid,0:7:16,carboxylic_acid:carboxylic_acid:carboxylic_acid,0(carboxylic_acid) > 7(carboxylic_acid) > 16(carboxylic_acid)
OC(=O)CN(CC(O)=O)c1ccccc1C(O)=O,2.98,0:7:16,carboxylic_acid:carboxylic_acid:carboxylic_acid,N-(2-Carboxyphenyl)iminodiacetic acid,0:7:16,carboxylic_acid:carboxylic_acid:carboxylic_acid,0(carboxylic_acid) > 7(carboxylic_acid) > 16(carboxylic_acid)
OC(=O)CN(CC(O)=O)c1ccccc1C(O)=O,2.2,0:7:16,carboxylic_acid:carboxylic_acid:carboxylic_acid,N-(2-Carboxyphenyl)iminodiacetic acid,0:7:16,carboxylic_acid:carboxylic_acid:carboxylic_acid,0(carboxylic_acid) > 7(carboxylic_acid) > 16(carboxylic_acid)
OC(=O)CN(CC(O)=O)c1ccccc1C(O)=O,2.34,0:7:16,carboxylic_acid:carboxylic_acid:carboxylic_acid,N-(2-Carboxyphenyl)iminodiacetic acid,0:7:16,carboxylic_acid:carboxylic_acid:carboxylic_acid,0(carboxylic_acid) > 7(carboxylic_acid) > 16(carboxylic_acid)
OC(=O)CN(CC(O)=O)c1cccc(c1)C(O)=O,5.1,0:7:16,carboxylic_acid:carboxylic_acid:carboxylic_acid,N-(3-Carboxyphenyl)iminodiacetic acid,0:7:16,carboxylic_acid:carboxylic_acid:carboxylic_acid,0(carboxylic_acid) > 7(carboxylic_acid) > 16(carboxylic_acid)
OC(=O)CN(CC(O)=O)c1cccc(c1)C(O)=O,4.06,0:7:16,carboxylic_acid:carboxylic_acid:carboxylic_acid,N-(3-Carboxyphenyl)iminodiacetic acid,0:7:16,carboxylic_acid:carboxylic_acid:carboxylic_acid,0(carboxylic_acid) > 7(carboxylic_acid) > 16(carboxylic_acid)
OC(=O)CN(CC(O)=O)c1cccc(c1)C(O)=O,2.4,0:7:16,carboxylic_acid:carboxylic_acid:carboxylic_acid,N-(3-Carboxyphenyl)iminodiacetic acid,0:7:16,carboxylic_acid:carboxylic_acid:carboxylic_acid,0(carboxylic_acid) > 7(carboxylic_acid) > 16(carboxylic_acid)
OC(=O)CN(CC(O)=O)c1ccc(cc1)C(O)=O,5.2,0:7:16,carboxylic_acid:carboxylic_acid:carboxylic_acid,N-(4-Carboxyphenyl)iminodiacetic acid,0:7:16,carboxylic_acid:carboxylic_acid:carboxylic_acid,0(carboxylic_acid) > 7(carboxylic_acid) > 16(carboxylic_acid)
OC(=O)CN(CC(O)=O)c1ccc(cc1)C(O)=O,4.28,0:7:16,carboxylic_acid:carboxylic_acid:carboxylic_acid,N-(4-Carboxyphenyl)iminodiacetic acid,0:7:16,carboxylic_acid:carboxylic_acid:carboxylic_acid,0(carboxylic_acid) > 7(carboxylic_acid) > 16(carboxylic_acid)
OC(=O)CN(CC(O)=O)c1ccc(cc1)C(O)=O,2.31,0:7:16,carboxylic_acid:carboxylic_acid:carboxylic_acid,N-(4-Carboxyphenyl)iminodiacetic acid,0:7:16,carboxylic_acid:carboxylic_acid:carboxylic_acid,0(carboxylic_acid) > 7(carboxylic_acid) > 16(carboxylic_acid)
OC(=O)CN(CC(O)=O)c1cc(C(O)=O)c(O)cc1C(O)=O,8.61,0:7:13:16:20,carboxylic_acid:carboxylic_acid:carboxylic_acid:phenol:carboxylic_acid,"N-(4-Hydroxy-2,5-dicarboxyphenyl)iminodiacetic acid",0:7:13:20:16,carboxylic_acid:carboxylic_acid:carboxylic_acid:carboxylic_acid:phenol,0(carboxylic_acid) > 7(carboxylic_acid) > 13(carboxylic_acid) > 20(carboxylic_acid) > 16(phenol)
OC(=O)CN(CC(O)=O)c1cc(C(O)=O)c(O)cc1C(O)=O,3.18,0:7:13:16:20,carboxylic_acid:carboxylic_acid:carboxylic_acid:phenol:carboxylic_acid,"N-(4-Hydroxy-2,5-dicarboxyphenyl)iminodiacetic acid",0:7:13:20:16,carboxylic_acid:carboxylic_acid:carboxylic_acid:carboxylic_acid:phenol,0(carboxylic_acid) > 7(carboxylic_acid) > 13(carboxylic_acid) > 20(carboxylic_acid) > 16(phenol)
OC(=O)CN(CC(O)=O)c1cc(C(O)=O)c(O)cc1C(O)=O,2.2,0:7:13:16:20,carboxylic_acid:carboxylic_acid:carboxylic_acid:phenol:carboxylic_acid,"N-(4-Hydroxy-2,5-dicarboxyphenyl)iminodiacetic acid",0:7:13:20:16,carboxylic_acid:carboxylic_acid:carboxylic_acid:carboxylic_acid:phenol,0(carboxylic_acid) > 7(carboxylic_acid) > 13(carboxylic_acid) > 20(carboxylic_acid) > 16(phenol)
OC(=O)CN(CC(O)=O)c1cc(C(O)=O)c(O)cc1C(O)=O,1.6,0:7:13:16:20,carboxylic_acid:carboxylic_acid:carboxylic_acid:phenol:carboxylic_acid,"N-(4-Hydroxy-2,5-dicarboxyphenyl)iminodiacetic acid",0:7:13:20:16,carboxylic_acid:carboxylic_acid:carboxylic_acid:carboxylic_acid:phenol,0(carboxylic_acid) > 7(carboxylic_acid) > 13(carboxylic_acid) > 20(carboxylic_acid) > 16(phenol)
OC(=O)CN(CC(O)=O)c1ccccc1O,11.08,0:7:15,carboxylic_acid:carboxylic_acid:phenol,N-(2-Hydroxyphenyl)iminodiacetic acid,0:7:15,carboxylic_acid:carboxylic_acid:phenol,0(carboxylic_acid) > 7(carboxylic_acid) > 15(phenol)
OC(=O)CN(CC(O)=O)c1ccccc1O,5.43,0:7:15,carboxylic_acid:carboxylic_acid:phenol,N-(2-Hydroxyphenyl)iminodiacetic acid,0:7:15,carboxylic_acid:carboxylic_acid:phenol,0(carboxylic_acid) > 7(carboxylic_acid) > 15(phenol)
OC(=O)CN(CC(O)=O)c1ccccc1O,2.98,0:7:15,carboxylic_acid:carboxylic_acid:phenol,N-(2-Hydroxyphenyl)iminodiacetic acid,0:7:15,carboxylic_acid:carboxylic_acid:phenol,0(carboxylic_acid) > 7(carboxylic_acid) > 15(phenol)
OC(=O)CN(CC(O)=O)c1cccc(O)c1,11.0,0:7:14,carboxylic_acid:carboxylic_acid:phenol,N-(3-Hydroxyphenyl)iminodiacetic acid,0:7:14,carboxylic_acid:carboxylic_acid:phenol,0(carboxylic_acid) > 7(carboxylic_acid) > 14(phenol)
OC(=O)CN(CC(O)=O)c1cccc(O)c1,4.93,0:7:14,carboxylic_acid:carboxylic_acid:phenol,N-(3-Hydroxyphenyl)iminodiacetic acid,0:7:14,carboxylic_acid:carboxylic_acid:phenol,0(carboxylic_acid) > 7(carboxylic_acid) > 14(phenol)
OC(=O)CN(CC(O)=O)c1cccc(O)c1,2.54,0:7:14,carboxylic_acid:carboxylic_acid:phenol,N-(3-Hydroxyphenyl)iminodiacetic acid,0:7:14,carboxylic_acid:carboxylic_acid:phenol,0(carboxylic_acid) > 7(carboxylic_acid) > 14(phenol)
OC(=O)CN(CC(O)=O)c1ccc(O)cc1,10.92,0:7:13,carboxylic_acid:carboxylic_acid:phenol,N-(4-Hydroxyphenyl)iminodiacetic acid,0:7:13,carboxylic_acid:carboxylic_acid:phenol,0(carboxylic_acid) > 7(carboxylic_acid) > 13(phenol)
OC(=O)CN(CC(O)=O)c1ccc(O)cc1,5.19,0:7:13,carboxylic_acid:carboxylic_acid:phenol,N-(4-Hydroxyphenyl)iminodiacetic acid,0:7:13,carboxylic_acid:carboxylic_acid:phenol,0(carboxylic_acid) > 7(carboxylic_acid) > 13(phenol)
OC(=O)CN(CC(O)=O)c1ccc(O)cc1,2.22,0:7:13,carboxylic_acid:carboxylic_acid:phenol,N-(4-Hydroxyphenyl)iminodiacetic acid,0:7:13,carboxylic_acid:carboxylic_acid:phenol,0(carboxylic_acid) > 7(carboxylic_acid) > 13(phenol)
OC(=O)CN(CC(O)=O)c1c(O)cc(c2ccccc12)[S](O)(=O)=O,8.85,0:7:11,carboxylic_acid:carboxylic_acid:phenol,N-(2-Hydroxy-4-sulfo-1-naphthyl)iminodiacetic acid,0:7:11,carboxylic_acid:carboxylic_acid:phenol,0(carboxylic_acid) > 7(carboxylic_acid) > 11(phenol)
OC(=O)CN(CC(O)=O)c1c(O)cc(c2ccccc12)[S](O)(=O)=O,3.38,0:7:11,carboxylic_acid:carboxylic_acid:phenol,N-(2-Hydroxy-4-sulfo-1-naphthyl)iminodiacetic acid,0:7:11,carboxylic_acid:carboxylic_acid:phenol,0(carboxylic_acid) > 7(carboxylic_acid) > 11(phenol)
OC(=O)CN(CC(O)=O)c1c(O)cc(c2ccccc12)[S](O)(=O)=O,2.16,0:7:11,carboxylic_acid:carboxylic_acid:phenol,N-(2-Hydroxy-4-sulfo-1-naphthyl)iminodiacetic acid,0:7:11,carboxylic_acid:carboxylic_acid:phenol,0(carboxylic_acid) > 7(carboxylic_acid) > 11(phenol)
OC(=O)CN(CC(O)=O)c1ccc(c2cc(cc(O)c12)[S](O)(=O)=O)[S](O)(=O)=O,9.48,0:7:18,carboxylic_acid:carboxylic_acid:phenol,"N-(8-Hydroxy-4,6-disulfo-1-naphthyl)iminodiacetic acid",0:7:18,carboxylic_acid:carboxylic_acid:phenol,0(carboxylic_acid) > 7(carboxylic_acid) > 18(phenol)
OC(=O)CN(CC(O)=O)c1ccc(c2cc(cc(O)c12)[S](O)(=O)=O)[S](O)(=O)=O,3.87,0:7:18,carboxylic_acid:carboxylic_acid:phenol,"N-(8-Hydroxy-4,6-disulfo-1-naphthyl)iminodiacetic acid",0:7:18,carboxylic_acid:carboxylic_acid:phenol,0(carboxylic_acid) > 7(carboxylic_acid) > 18(phenol)
OC(=O)CN(CC(O)=O)c1ccc(c2cc(cc(O)c12)[S](O)(=O)=O)[S](O)(=O)=O,2.58,0:7:18,carboxylic_acid:carboxylic_acid:phenol,"N-(8-Hydroxy-4,6-disulfo-1-naphthyl)iminodiacetic acid",0:7:18,carboxylic_acid:carboxylic_acid:phenol,0(carboxylic_acid) > 7(carboxylic_acid) > 18(phenol)
COc1ccccc1N(CC(O)=O)CC(O)=O,5.58,11:15,carboxylic_acid:carboxylic_acid,N-(2-Methoxyphenyl)iminodiacetic acid,11:15,carboxylic_acid:carboxylic_acid,11(carboxylic_acid) > 15(carboxylic_acid)
COc1ccccc1N(CC(O)=O)CC(O)=O,2.69,11:15,carboxylic_acid:carboxylic_acid,N-(2-Methoxyphenyl)iminodiacetic acid,11:15,carboxylic_acid:carboxylic_acid,11(carboxylic_acid) > 15(carboxylic_acid)
OC(=O)CN(CC(O)=O)c1ccccc1S,9.54,0:7:15,carboxylic_acid:carboxylic_acid:thiol,N-(2-Mercaptophenyl)iminodiacetic acid,0:7:15,carboxylic_acid:carboxylic_acid:thiol,0(carboxylic_acid) > 7(carboxylic_acid) > 15(thiol)
OC(=O)CN(CC(O)=O)c1ccccc1S,6.3,0:7:15,carboxylic_acid:carboxylic_acid:thiol,N-(2-Mercaptophenyl)iminodiacetic acid,0:7:15,carboxylic_acid:carboxylic_acid:thiol,0(carboxylic_acid) > 7(carboxylic_acid) > 15(thiol)
OC(=O)CN(CC(O)=O)c1ccccc1S,2.85,0:7:15,carboxylic_acid:carboxylic_acid:thiol,N-(2-Mercaptophenyl)iminodiacetic acid,0:7:15,carboxylic_acid:carboxylic_acid:thiol,0(carboxylic_acid) > 7(carboxylic_acid) > 15(thiol)
OC(=O)CNc1cc(C(O)=O)c(cc1C(O)=O)N(CC(O)=O)CC(O)=O,9.4,0:9:15:20:24,carboxylic_acid:carboxylic_acid:carboxylic_acid:carboxylic_acid:carboxylic_acid,"N-[2,5-Dicarboxy-4-(carboxymethylamino)phenyl]iminodiacetic acid",0:9:15:20:24,carboxylic_acid:carboxylic_acid:carboxylic_acid:carboxylic_acid:carboxylic_acid,0(carboxylic_acid) > 9(carboxylic_acid) > 15(carboxylic_acid) > 20(carboxylic_acid) > 24(carboxylic_acid)
OC(=O)CNc1cc(C(O)=O)c(cc1C(O)=O)N(CC(O)=O)CC(O)=O,4.48,0:9:15:20:24,carboxylic_acid:carboxylic_acid:carboxylic_acid:carboxylic_acid:carboxylic_acid,"N-[2,5-Dicarboxy-4-(carboxymethylamino)phenyl]iminodiacetic acid",0:9:15:20:24,carboxylic_acid:carboxylic_acid:carboxylic_acid:carboxylic_acid:carboxylic_acid,0(carboxylic_acid) > 9(carboxylic_acid) > 15(carboxylic_acid) > 20(carboxylic_acid) > 24(carboxylic_acid)
OC(=O)CNc1cc(C(O)=O)c(cc1C(O)=O)N(CC(O)=O)CC(O)=O,3.57,0:9:15:20:24,carboxylic_acid:carboxylic_acid:carboxylic_acid:carboxylic_acid:carboxylic_acid,"N-[2,5-Dicarboxy-4-(carboxymethylamino)phenyl]iminodiacetic acid",0:9:15:20:24,carboxylic_acid:carboxylic_acid:carboxylic_acid:carboxylic_acid:carboxylic_acid,0(carboxylic_acid) > 9(carboxylic_acid) > 15(carboxylic_acid) > 20(carboxylic_acid) > 24(carboxylic_acid)
OC(=O)CNc1cc(C(O)=O)c(cc1C(O)=O)N(CC(O)=O)CC(O)=O,2.67,0:9:15:20:24,carboxylic_acid:carboxylic_acid:carboxylic_acid:carboxylic_acid:carboxylic_acid,"N-[2,5-Dicarboxy-4-(carboxymethylamino)phenyl]iminodiacetic acid",0:9:15:20:24,carboxylic_acid:carboxylic_acid:carboxylic_acid:carboxylic_acid:carboxylic_acid,0(carboxylic_acid) > 9(carboxylic_acid) > 15(carboxylic_acid) > 20(carboxylic_acid) > 24(carboxylic_acid)
OC(=O)CNc1cc(C(O)=O)c(cc1C(O)=O)N(CC(O)=O)CC(O)=O,1.8,0:9:15:20:24,carboxylic_acid:carboxylic_acid:carboxylic_acid:carboxylic_acid:carboxylic_acid,"N-[2,5-Dicarboxy-4-(carboxymethylamino)phenyl]iminodiacetic acid",0:9:15:20:24,carboxylic_acid:carboxylic_acid:carboxylic_acid:carboxylic_acid:carboxylic_acid,0(carboxylic_acid) > 9(carboxylic_acid) > 15(carboxylic_acid) > 20(carboxylic_acid) > 24(carboxylic_acid)
OC(=O)CN(CC(O)=O)c1ccccc1N(CC(O)=O)CC(O)=O,6.67,7:25,tertiary_amine:tertiary_amine,"1,2-Phenylenedinitrilotetraacetic acid",7:25,tertiary_amine:tertiary_amine,7(tertiary_amine) > 25(tertiary_amine)
OC(=O)CN(CC(O)=O)c1ccccc1N(CC(O)=O)CC(O)=O,6.81,7:25,tertiary_amine:tertiary_amine,"1,2-Phenylenedinitrilotetraacetic acid",7:25,tertiary_amine:tertiary_amine,7(tertiary_amine) > 25(tertiary_amine)
OC(=O)CN(CC(O)=O)c1ccccc1N(CC(O)=O)CC(O)=O,6.42,7:25,tertiary_amine:tertiary_amine,"1,2-Phenylenedinitrilotetraacetic acid",7:25,tertiary_amine:tertiary_amine,7(tertiary_amine) > 25(tertiary_amine)
OC(=O)CN(CC(O)=O)c1ccccc1N(CC(O)=O)CC(O)=O,6.41,7:25,tertiary_amine:tertiary_amine,"1,2-Phenylenedinitrilotetraacetic acid",7:25,tertiary_amine:tertiary_amine,7(tertiary_amine) > 25(tertiary_amine)
OC(=O)CN(CC(O)=O)c1ccccc1N(CC(O)=O)CC(O)=O,4.81,7:25,tertiary_amine:tertiary_amine,"1,2-Phenylenedinitrilotetraacetic acid",7:25,tertiary_amine:tertiary_amine,7(tertiary_amine) > 25(tertiary_amine)
OC(=O)CN(CC(O)=O)c1ccccc1N(CC(O)=O)CC(O)=O,4.98,7:25,tertiary_amine:tertiary_amine,"1,2-Phenylenedinitrilotetraacetic acid",7:25,tertiary_amine:tertiary_amine,7(tertiary_amine) > 25(tertiary_amine)
OC(=O)CN(CC(O)=O)c1ccccc1N(CC(O)=O)CC(O)=O,4.58,7:25,tertiary_amine:tertiary_amine,"1,2-Phenylenedinitrilotetraacetic acid",7:25,tertiary_amine:tertiary_amine,7(tertiary_amine) > 25(tertiary_amine)
OC(=O)CN(CC(O)=O)c1ccccc1N(CC(O)=O)CC(O)=O,4.61,7:25,tertiary_amine:tertiary_amine,"1,2-Phenylenedinitrilotetraacetic acid",7:25,tertiary_amine:tertiary_amine,7(tertiary_amine) > 25(tertiary_amine)
OC(=O)CN(CC(O)=O)c1ccccc1N(CC(O)=O)CC(O)=O,3.66,7:25,tertiary_amine:tertiary_amine,"1,2-Phenylenedinitrilotetraacetic acid",7:25,tertiary_amine:tertiary_amine,7(tertiary_amine) > 25(tertiary_amine)
OC(=O)CN(CC(O)=O)c1ccccc1N(CC(O)=O)CC(O)=O,3.5,7:25,tertiary_amine:tertiary_amine,"1,2-Phenylenedinitrilotetraacetic acid",7:25,tertiary_amine:tertiary_amine,7(tertiary_amine) > 25(tertiary_amine)
OC(=O)CN(CC(O)=O)c1ccccc1N(CC(O)=O)CC(O)=O,3.53,7:25,tertiary_amine:tertiary_amine,"1,2-Phenylenedinitrilotetraacetic acid",7:25,tertiary_amine:tertiary_amine,7(tertiary_amine) > 25(tertiary_amine)
OC(=O)CN(CC(O)=O)c1ccccc1N(CC(O)=O)CC(O)=O,3.0,7:25,tertiary_amine:tertiary_amine,"1,2-Phenylenedinitrilotetraacetic acid",7:25,tertiary_amine:tertiary_amine,7(tertiary_amine) > 25(tertiary_amine)
OC(=O)CN(CC(O)=O)c1ccccc1N(CC(O)=O)CC(O)=O,2.92,7:25,tertiary_amine:tertiary_amine,"1,2-Phenylenedinitrilotetraacetic acid",7:25,tertiary_amine:tertiary_amine,7(tertiary_amine) > 25(tertiary_amine)
OC(=O)CN(CC(O)=O)c1ccccc1N(CC(O)=O)CC(O)=O,2.99,7:25,tertiary_amine:tertiary_amine,"1,2-Phenylenedinitrilotetraacetic acid",7:25,tertiary_amine:tertiary_amine,7(tertiary_amine) > 25(tertiary_amine)
OC(=O)CN(CC(O)=O)c1ccccc1N(CC(O)=O)CC(O)=O,0.6,7:25,tertiary_amine:tertiary_amine,"1,2-Phenylenedinitrilotetraacetic acid",7:25,tertiary_amine:tertiary_amine,7(tertiary_amine) > 25(tertiary_amine)
OC(=O)CN(CC(O)=O)c1ccccc1N(CC(O)=O)CC(O)=O,0.4,7:25,tertiary_amine:tertiary_amine,"1,2-Phenylenedinitrilotetraacetic acid",7:25,tertiary_amine:tertiary_amine,7(tertiary_amine) > 25(tertiary_amine)
OC(=O)CN(CC(O)=O)c1ccccc1N(CC(O)=O)CC(O)=O,0.3,7:25,tertiary_amine:tertiary_amine,"1,2-Phenylenedinitrilotetraacetic acid",7:25,tertiary_amine:tertiary_amine,7(tertiary_amine) > 25(tertiary_amine)
Cc1ccc(N(CC(O)=O)CC(O)=O)c(c1)N(CC(O)=O)CC(O)=O,7.02,8:12:19:23,carboxylic_acid:carboxylic_acid:carboxylic_acid:carboxylic_acid,"4-Methyl-1,2-phenylenedinitrilotetraacetic acid",8:12:19:23,carboxylic_acid:carboxylic_acid:carboxylic_acid:carboxylic_acid,8(carboxylic_acid) > 12(carboxylic_acid) > 19(carboxylic_acid) > 23(carboxylic_acid)
Cc1ccc(N(CC(O)=O)CC(O)=O)c(c1)N(CC(O)=O)CC(O)=O,7.04,8:12:19:23,carboxylic_acid:carboxylic_acid:carboxylic_acid:carboxylic_acid,"4-Methyl-1,2-phenylenedinitrilotetraacetic acid",8:12:19:23,carboxylic_acid:carboxylic_acid:carboxylic_acid:carboxylic_acid,8(carboxylic_acid) > 12(carboxylic_acid) > 19(carboxylic_acid) > 23(carboxylic_acid)
Cc1ccc(N(CC(O)=O)CC(O)=O)c(c1)N(CC(O)=O)CC(O)=O,6.78,8:12:19:23,carboxylic_acid:carboxylic_acid:carboxylic_acid:carboxylic_acid,"4-Methyl-1,2-phenylenedinitrilotetraacetic acid",8:12:19:23,carboxylic_acid:carboxylic_acid:carboxylic_acid:carboxylic_acid,8(carboxylic_acid) > 12(carboxylic_acid) > 19(carboxylic_acid) > 23(carboxylic_acid)
Cc1ccc(N(CC(O)=O)CC(O)=O)c(c1)N(CC(O)=O)CC(O)=O,4.75,8:12:19:23,carboxylic_acid:carboxylic_acid:carboxylic_acid:carboxylic_acid,"4-Methyl-1,2-phenylenedinitrilotetraacetic acid",8:12:19:23,carboxylic_acid:carboxylic_acid:carboxylic_acid:carboxylic_acid,8(carboxylic_acid) > 12(carboxylic_acid) > 19(carboxylic_acid) > 23(carboxylic_acid)
Cc1ccc(N(CC(O)=O)CC(O)=O)c(c1)N(CC(O)=O)CC(O)=O,4.91,8:12:19:23,carboxylic_acid:carboxylic_acid:carboxylic_acid:carboxylic_acid,"4-Methyl-1,2-phenylenedinitrilotetraacetic acid",8:12:19:23,carboxylic_acid:carboxylic_acid:carboxylic_acid:carboxylic_acid,8(carboxylic_acid) > 12(carboxylic_acid) > 19(carboxylic_acid) > 23(carboxylic_acid)
Cc1ccc(N(CC(O)=O)CC(O)=O)c(c1)N(CC(O)=O)CC(O)=O,4.62,8:12:19:23,carboxylic_acid:carboxylic_acid:carboxylic_acid:carboxylic_acid,"4-Methyl-1,2-phenylenedinitrilotetraacetic acid",8:12:19:23,carboxylic_acid:carboxylic_acid:carboxylic_acid:carboxylic_acid,8(carboxylic_acid) > 12(carboxylic_acid) > 19(carboxylic_acid) > 23(carboxylic_acid)
Cc1ccc(N(CC(O)=O)CC(O)=O)c(c1)N(CC(O)=O)CC(O)=O,3.55,8:12:19:23,carboxylic_acid:carboxylic_acid:carboxylic_acid:carboxylic_acid,"4-Methyl-1,2-phenylenedinitrilotetraacetic acid",8:12:19:23,carboxylic_acid:carboxylic_acid:carboxylic_acid:carboxylic_acid,8(carboxylic_acid) > 12(carboxylic_acid) > 19(carboxylic_acid) > 23(carboxylic_acid)
Cc1ccc(N(CC(O)=O)CC(O)=O)c(c1)N(CC(O)=O)CC(O)=O,3.51,8:12:19:23,carboxylic_acid:carboxylic_acid:carboxylic_acid:carboxylic_acid,"4-Methyl-1,2-phenylenedinitrilotetraacetic acid",8:12:19:23,carboxylic_acid:carboxylic_acid:carboxylic_acid:carboxylic_acid,8(carboxylic_acid) > 12(carboxylic_acid) > 19(carboxylic_acid) > 23(carboxylic_acid)
Cc1ccc(N(CC(O)=O)CC(O)=O)c(c1)N(CC(O)=O)CC(O)=O,2.85,8:12:19:23,carboxylic_acid:carboxylic_acid:carboxylic_acid:carboxylic_acid,"4-Methyl-1,2-phenylenedinitrilotetraacetic acid",8:12:19:23,carboxylic_acid:carboxylic_acid:carboxylic_acid:carboxylic_acid,8(carboxylic_acid) > 12(carboxylic_acid) > 19(carboxylic_acid) > 23(carboxylic_acid)