SMILES,pKa,Dissociable_Atoms,Functional_Group,Name,Dissociable_Atoms_Ordered,Functional_Group_Ordered,Dissociation_Order
NCCCC[C@H](N)C(=O)N[C@@H](CCCCN)C(O)=O,10.9,17:0:6:15,carboxylic_acid:amine_primary:amine_primary:amine_primary,L-Lysyl-L-lysine,17:0:6:15,carboxylic_acid:amine_primary:amine_primary:amine_primary,17(carboxylic_acid) > 0(amine_primary) > 6(amine_primary) > 15(amine_primary)
NCCCC[C@H](N)C(=O)N[C@@H](CCCCN)C(O)=O,9.94,17:0:6:15,carboxylic_acid:amine_primary:amine_primary:amine_primary,L-Lysyl-L-lysine,17:0:6:15,carboxylic_acid:amine_primary:amine_primary:amine_primary,17(carboxylic_acid) > 0(amine_primary) > 6(amine_primary) > 15(amine_primary)
NCCCC[C@H](N)C(=O)N[C@@H](CCCCN)C(O)=O,7.42,17:0:6:15,carboxylic_acid:amine_primary:amine_primary:amine_primary,L-Lysyl-L-lysine,17:0:6:15,carboxylic_acid:amine_primary:amine_primary:amine_primary,17(carboxylic_acid) > 0(amine_primary) > 6(amine_primary) > 15(amine_primary)
NCCCC[C@H](N)C(=O)N[C@@H](CCCCN)C(O)=O,2.9,17:0:6:15,carboxylic_acid:amine_primary:amine_primary:amine_primary,L-Lysyl-L-lysine,17:0:6:15,carboxylic_acid:amine_primary:amine_primary:amine_primary,17(carboxylic_acid) > 0(amine_primary) > 6(amine_primary) > 15(amine_primary)
NCCCC[C@H](N)C(=O)N[C@H](CCCCN)C(O)=O,10.78,17:0:6:15,carboxylic_acid:amine_primary:amine_primary:amine_primary,L-Lysyl-D-lysine,17:0:6:15,carboxylic_acid:amine_primary:amine_primary:amine_primary,17(carboxylic_acid) > 0(amine_primary) > 6(amine_primary) > 15(amine_primary)
NCCCC[C@H](N)C(=O)N[C@H](CCCCN)C(O)=O,9.81,17:0:6:15,carboxylic_acid:amine_primary:amine_primary:amine_primary,L-Lysyl-D-lysine,17:0:6:15,carboxylic_acid:amine_primary:amine_primary:amine_primary,17(carboxylic_acid) > 0(amine_primary) > 6(amine_primary) > 15(amine_primary)
NCCCC[C@H](N)C(=O)N[C@H](CCCCN)C(O)=O,7.42,17:0:6:15,carboxylic_acid:amine_primary:amine_primary:amine_primary,L-Lysyl-D-lysine,17:0:6:15,carboxylic_acid:amine_primary:amine_primary:amine_primary,17(carboxylic_acid) > 0(amine_primary) > 6(amine_primary) > 15(amine_primary)
NCCCC[C@H](N)C(=O)N[C@H](CCCCN)C(O)=O,2.74,17:0:6:15,carboxylic_acid:amine_primary:amine_primary:amine_primary,L-Lysyl-D-lysine,17:0:6:15,carboxylic_acid:amine_primary:amine_primary:amine_primary,17(carboxylic_acid) > 0(amine_primary) > 6(amine_primary) > 15(amine_primary)
NCCCC[C@H](NC(=O)[C@@H](N)Cc1c[nH]cn1)C(O)=O,10.09,18:0:10:6,carboxylic_acid:amine_primary:amine_primary:amine_secondary,L-Histidyl-L-lysine,18:0:10:6,carboxylic_acid:amine_primary:amine_primary:amine_secondary,18(carboxylic_acid) > 0(amine_primary) > 10(amine_primary) > 6(amine_secondary)
NCCCC[C@H](NC(=O)[C@@H](N)Cc1c[nH]cn1)C(O)=O,7.29,18:0:10:6,carboxylic_acid:amine_primary:amine_primary:amine_secondary,L-Histidyl-L-lysine,18:0:10:6,carboxylic_acid:amine_primary:amine_primary:amine_secondary,18(carboxylic_acid) > 0(amine_primary) > 10(amine_primary) > 6(amine_secondary)
NCCCC[C@H](NC(=O)[C@@H](N)Cc1c[nH]cn1)C(O)=O,5.65,18:0:10:6,carboxylic_acid:amine_primary:amine_primary:amine_secondary,L-Histidyl-L-lysine,18:0:10:6,carboxylic_acid:amine_primary:amine_primary:amine_secondary,18(carboxylic_acid) > 0(amine_primary) > 10(amine_primary) > 6(amine_secondary)
NCCCC[C@H](NC(=O)[C@@H](N)Cc1c[nH]cn1)C(O)=O,2.0,18:0:10:6,carboxylic_acid:amine_primary:amine_primary:amine_secondary,L-Histidyl-L-lysine,18:0:10:6,carboxylic_acid:amine_primary:amine_primary:amine_secondary,18(carboxylic_acid) > 0(amine_primary) > 10(amine_primary) > 6(amine_secondary)
OC(=O)[C@H](Cc1c[nH]cn1)NC(=O)[C@@H]2CCC(=O)N2,7.18,0:7,carboxylic_acid:amine_secondary,L-Pyroglutamyl-L-histidine,0:7,carboxylic_acid:amine_secondary,0(carboxylic_acid) > 7(amine_secondary)
OC(=O)[C@H](Cc1c[nH]cn1)NC(=O)[C@@H]2CCC(=O)N2,2.7,0:7,carboxylic_acid:amine_secondary,L-Pyroglutamyl-L-histidine,0:7,carboxylic_acid:amine_secondary,0(carboxylic_acid) > 7(amine_secondary)
N[C@@H](Cc1c[nH]cn1)C(=O)N[C@@H](Cc2c[nH]cn2)C(O)=O,7.52,19:0:5:10,carboxylic_acid:amine_primary:amine_secondary:amine_secondary,L-Histidyl-L-histidine,19:0:5:10,carboxylic_acid:amine_primary:amine_secondary:amine_secondary,19(carboxylic_acid) > 0(amine_primary) > 5(amine_secondary) > 10(amine_secondary)
N[C@@H](Cc1c[nH]cn1)C(=O)N[C@@H](Cc2c[nH]cn2)C(O)=O,6.7,19:0:5:10,carboxylic_acid:amine_primary:amine_secondary:amine_secondary,L-Histidyl-L-histidine,19:0:5:10,carboxylic_acid:amine_primary:amine_secondary:amine_secondary,19(carboxylic_acid) > 0(amine_primary) > 5(amine_secondary) > 10(amine_secondary)
N[C@@H](Cc1c[nH]cn1)C(=O)N[C@@H](Cc2c[nH]cn2)C(O)=O,5.66,19:0:5:10,carboxylic_acid:amine_primary:amine_secondary:amine_secondary,L-Histidyl-L-histidine,19:0:5:10,carboxylic_acid:amine_primary:amine_secondary:amine_secondary,19(carboxylic_acid) > 0(amine_primary) > 5(amine_secondary) > 10(amine_secondary)
N[C@@H](Cc1c[nH]cn1)C(=O)N[C@@H](Cc2c[nH]cn2)C(O)=O,2.6,19:0:5:10,carboxylic_acid:amine_primary:amine_secondary:amine_secondary,L-Histidyl-L-histidine,19:0:5:10,carboxylic_acid:amine_primary:amine_secondary:amine_secondary,19(carboxylic_acid) > 0(amine_primary) > 5(amine_secondary) > 10(amine_secondary)
N[C@H](Cc1c[nH]cn1)C(=O)N[C@@H](Cc2c[nH]cn2)C(O)=O,7.82,19:0:5:10,carboxylic_acid:amine_primary:amine_secondary:amine_secondary,D-Histidyl-L-histidine,19:0:5:10,carboxylic_acid:amine_primary:amine_secondary:amine_secondary,19(carboxylic_acid) > 0(amine_primary) > 5(amine_secondary) > 10(amine_secondary)
N[C@H](Cc1c[nH]cn1)C(=O)N[C@@H](Cc2c[nH]cn2)C(O)=O,7.4,19:0:5:10,carboxylic_acid:amine_primary:amine_secondary:amine_secondary,D-Histidyl-L-histidine,19:0:5:10,carboxylic_acid:amine_primary:amine_secondary:amine_secondary,19(carboxylic_acid) > 0(amine_primary) > 5(amine_secondary) > 10(amine_secondary)
N[C@H](Cc1c[nH]cn1)C(=O)N[C@@H](Cc2c[nH]cn2)C(O)=O,6.73,19:0:5:10,carboxylic_acid:amine_primary:amine_secondary:amine_secondary,D-Histidyl-L-histidine,19:0:5:10,carboxylic_acid:amine_primary:amine_secondary:amine_secondary,19(carboxylic_acid) > 0(amine_primary) > 5(amine_secondary) > 10(amine_secondary)
N[C@H](Cc1c[nH]cn1)C(=O)N[C@@H](Cc2c[nH]cn2)C(O)=O,6.43,19:0:5:10,carboxylic_acid:amine_primary:amine_secondary:amine_secondary,D-Histidyl-L-histidine,19:0:5:10,carboxylic_acid:amine_primary:amine_secondary:amine_secondary,19(carboxylic_acid) > 0(amine_primary) > 5(amine_secondary) > 10(amine_secondary)
N[C@H](Cc1c[nH]cn1)C(=O)N[C@@H](Cc2c[nH]cn2)C(O)=O,5.32,19:0:5:10,carboxylic_acid:amine_primary:amine_secondary:amine_secondary,D-Histidyl-L-histidine,19:0:5:10,carboxylic_acid:amine_primary:amine_secondary:amine_secondary,19(carboxylic_acid) > 0(amine_primary) > 5(amine_secondary) > 10(amine_secondary)
N[C@H](Cc1c[nH]cn1)C(=O)N[C@@H](Cc2c[nH]cn2)C(O)=O,5.03,19:0:5:10,carboxylic_acid:amine_primary:amine_secondary:amine_secondary,D-Histidyl-L-histidine,19:0:5:10,carboxylic_acid:amine_primary:amine_secondary:amine_secondary,19(carboxylic_acid) > 0(amine_primary) > 5(amine_secondary) > 10(amine_secondary)
N[C@H](Cc1c[nH]cn1)C(=O)N[C@@H](Cc2c[nH]cn2)C(O)=O,2.18,19:0:5:10,carboxylic_acid:amine_primary:amine_secondary:amine_secondary,D-Histidyl-L-histidine,19:0:5:10,carboxylic_acid:amine_primary:amine_secondary:amine_secondary,19(carboxylic_acid) > 0(amine_primary) > 5(amine_secondary) > 10(amine_secondary)
N[C@H](Cc1c[nH]cn1)C(=O)N[C@@H](Cc2c[nH]cn2)C(O)=O,2.11,19:0:5:10,carboxylic_acid:amine_primary:amine_secondary:amine_secondary,D-Histidyl-L-histidine,19:0:5:10,carboxylic_acid:amine_primary:amine_secondary:amine_secondary,19(carboxylic_acid) > 0(amine_primary) > 5(amine_secondary) > 10(amine_secondary)
OC(=O)[C@H](Cc1c[nH]cn1)NC(=O)CS,8.7,0:7:10,carboxylic_acid:amine_secondary:amine_secondary,N-(Mercaptoacetyl)-L-histidine,0:7:10,carboxylic_acid:amine_secondary:amine_secondary,0(carboxylic_acid) > 7(amine_secondary) > 10(amine_secondary)
OC(=O)[C@H](Cc1c[nH]cn1)NC(=O)CS,7.14,0:7:10,carboxylic_acid:amine_secondary:amine_secondary,N-(Mercaptoacetyl)-L-histidine,0:7:10,carboxylic_acid:amine_secondary:amine_secondary,0(carboxylic_acid) > 7(amine_secondary) > 10(amine_secondary)
OC(=O)[C@H](Cc1c[nH]cn1)NC(=O)CS,3.43,0:7:10,carboxylic_acid:amine_secondary:amine_secondary,N-(Mercaptoacetyl)-L-histidine,0:7:10,carboxylic_acid:amine_secondary:amine_secondary,0(carboxylic_acid) > 7(amine_secondary) > 10(amine_secondary)
OC(=O)[C@H](Cc1c[nH]cn1)NC(=O)CCS,9.86,0:7:10,carboxylic_acid:amine_secondary:amine_secondary,N-(3-Mercaptopropionyl)-L-histidine,0:7:10,carboxylic_acid:amine_secondary:amine_secondary,0(carboxylic_acid) > 7(amine_secondary) > 10(amine_secondary)
OC(=O)[C@H](Cc1c[nH]cn1)NC(=O)CCS,7.25,0:7:10,carboxylic_acid:amine_secondary:amine_secondary,N-(3-Mercaptopropionyl)-L-histidine,0:7:10,carboxylic_acid:amine_secondary:amine_secondary,0(carboxylic_acid) > 7(amine_secondary) > 10(amine_secondary)
OC(=O)[C@H](Cc1c[nH]cn1)NC(=O)CCS,3.48,0:7:10,carboxylic_acid:amine_secondary:amine_secondary,N-(3-Mercaptopropionyl)-L-histidine,0:7:10,carboxylic_acid:amine_secondary:amine_secondary,0(carboxylic_acid) > 7(amine_secondary) > 10(amine_secondary)
CSCC[C@H](N)C(=O)N[C@@H](CCSC)C(O)=O,7.41,15:5,carboxylic_acid:amine_primary,L-Methionyl-L-methionine,15:5,carboxylic_acid:amine_primary,15(carboxylic_acid) > 5(amine_primary)
CSCC[C@H](N)C(=O)N[C@@H](CCSC)C(O)=O,3.22,15:5,carboxylic_acid:amine_primary,L-Methionyl-L-methionine,15:5,carboxylic_acid:amine_primary,15(carboxylic_acid) > 5(amine_primary)
CSCC[C@H](N)C(=O)N[C@H](CCSC)C(O)=O,7.59,15:5,carboxylic_acid:amine_primary,L-Methionyl-D-methionine,15:5,carboxylic_acid:amine_primary,15(carboxylic_acid) > 5(amine_primary)
CSCC[C@H](N)C(=O)N[C@H](CCSC)C(O)=O,2.98,15:5,carboxylic_acid:amine_primary,L-Methionyl-D-methionine,15:5,carboxylic_acid:amine_primary,15(carboxylic_acid) > 5(amine_primary)
CSCC[C@H](N)C(=O)N[C@@H](Cc1c[nH]cn1)C(O)=O,7.59,17:5:8,carboxylic_acid:amine_primary:amine_secondary,L-Methionyl-L-histidine,17:5:8,carboxylic_acid:amine_primary:amine_secondary,17(carboxylic_acid) > 5(amine_primary) > 8(amine_secondary)
CSCC[C@H](N)C(=O)N[C@@H](Cc1c[nH]cn1)C(O)=O,6.57,17:5:8,carboxylic_acid:amine_primary:amine_secondary,L-Methionyl-L-histidine,17:5:8,carboxylic_acid:amine_primary:amine_secondary,17(carboxylic_acid) > 5(amine_primary) > 8(amine_secondary)
CSCC[C@H](N)C(=O)N[C@@H](Cc1c[nH]cn1)C(O)=O,2.96,17:5:8,carboxylic_acid:amine_primary:amine_secondary,L-Methionyl-L-histidine,17:5:8,carboxylic_acid:amine_primary:amine_secondary,17(carboxylic_acid) > 5(amine_primary) > 8(amine_secondary)
CSCC[C@H](NC(=O)[C@@H](N)Cc1c[nH]cn1)C(O)=O,7.5,17:9:5,carboxylic_acid:amine_primary:amine_secondary,L-Histidyl-L-methionine,17:9:5,carboxylic_acid:amine_primary:amine_secondary,17(carboxylic_acid) > 9(amine_primary) > 5(amine_secondary)
CSCC[C@H](NC(=O)[C@@H](N)Cc1c[nH]cn1)C(O)=O,6.0,17:9:5,carboxylic_acid:amine_primary:amine_secondary,L-Histidyl-L-methionine,17:9:5,carboxylic_acid:amine_primary:amine_secondary,17(carboxylic_acid) > 9(amine_primary) > 5(amine_secondary)
CSCC[C@H](NC(=O)[C@@H](N)Cc1c[nH]cn1)C(O)=O,2.58,17:9:5,carboxylic_acid:amine_primary:amine_secondary,L-Histidyl-L-methionine,17:9:5,carboxylic_acid:amine_primary:amine_secondary,17(carboxylic_acid) > 9(amine_primary) > 5(amine_secondary)
NCC(=O)NCC(=O)NCC(O)=O,7.89,11:0,carboxylic_acid:amine_primary,Glycylglycylglycine (Triglycine),11:0,carboxylic_acid:amine_primary,11(carboxylic_acid) > 0(amine_primary)
NCC(=O)NCC(=O)NCC(O)=O,7.58,11:0,carboxylic_acid:amine_primary,Glycylglycylglycine (Triglycine),11:0,carboxylic_acid:amine_primary,11(carboxylic_acid) > 0(amine_primary)
NCC(=O)NCC(=O)NCC(O)=O,7.99,11:0,carboxylic_acid:amine_primary,Glycylglycylglycine (Triglycine),11:0,carboxylic_acid:amine_primary,11(carboxylic_acid) > 0(amine_primary)
NCC(=O)NCC(=O)NCC(O)=O,8.27,11:0,carboxylic_acid:amine_primary,Glycylglycylglycine (Triglycine),11:0,carboxylic_acid:amine_primary,11(carboxylic_acid) > 0(amine_primary)
NCC(=O)NCC(=O)NCC(O)=O,8.3,11:0,carboxylic_acid:amine_primary,Glycylglycylglycine (Triglycine),11:0,carboxylic_acid:amine_primary,11(carboxylic_acid) > 0(amine_primary)
NCC(=O)NCC(=O)NCC(O)=O,8.57,11:0,carboxylic_acid:amine_primary,Glycylglycylglycine (Triglycine),11:0,carboxylic_acid:amine_primary,11(carboxylic_acid) > 0(amine_primary)
NCC(=O)NCC(=O)NCC(O)=O,8.34,11:0,carboxylic_acid:amine_primary,Glycylglycylglycine (Triglycine),11:0,carboxylic_acid:amine_primary,11(carboxylic_acid) > 0(amine_primary)
NCC(=O)NCC(=O)NCC(O)=O,8.088,11:0,carboxylic_acid:amine_primary,Glycylglycylglycine (Triglycine),11:0,carboxylic_acid:amine_primary,11(carboxylic_acid) > 0(amine_primary)
NCC(=O)NCC(=O)NCC(O)=O,7.83,11:0,carboxylic_acid:amine_primary,Glycylglycylglycine (Triglycine),11:0,carboxylic_acid:amine_primary,11(carboxylic_acid) > 0(amine_primary)
NCC(=O)NCC(=O)NCC(O)=O,3.21,11:0,carboxylic_acid:amine_primary,Glycylglycylglycine (Triglycine),11:0,carboxylic_acid:amine_primary,11(carboxylic_acid) > 0(amine_primary)
NCC(=O)NCC(=O)NCC(O)=O,3.19,11:0,carboxylic_acid:amine_primary,Glycylglycylglycine (Triglycine),11:0,carboxylic_acid:amine_primary,11(carboxylic_acid) > 0(amine_primary)
NCC(=O)NCC(=O)NCC(O)=O,3.2,11:0,carboxylic_acid:amine_primary,Glycylglycylglycine (Triglycine),11:0,carboxylic_acid:amine_primary,11(carboxylic_acid) > 0(amine_primary)
NCC(=O)NCC(=O)NCC(O)=O,3.42,11:0,carboxylic_acid:amine_primary,Glycylglycylglycine (Triglycine),11:0,carboxylic_acid:amine_primary,11(carboxylic_acid) > 0(amine_primary)
NCC(=O)NCC(=O)NCC(O)=O,3.39,11:0,carboxylic_acid:amine_primary,Glycylglycylglycine (Triglycine),11:0,carboxylic_acid:amine_primary,11(carboxylic_acid) > 0(amine_primary)
NCC(=O)NCC(=O)NCC(O)=O,3.6,11:0,carboxylic_acid:amine_primary,Glycylglycylglycine (Triglycine),11:0,carboxylic_acid:amine_primary,11(carboxylic_acid) > 0(amine_primary)
NCC(=O)NCC(=O)NCC(O)=O,3.236,11:0,carboxylic_acid:amine_primary,Glycylglycylglycine (Triglycine),11:0,carboxylic_acid:amine_primary,11(carboxylic_acid) > 0(amine_primary)
NCC(=O)NCC(=O)NCC(O)=O,3.224,11:0,carboxylic_acid:amine_primary,Glycylglycylglycine (Triglycine),11:0,carboxylic_acid:amine_primary,11(carboxylic_acid) > 0(amine_primary)
NCC(=O)NCC(=O)NCC(O)=O,3.202,11:0,carboxylic_acid:amine_primary,Glycylglycylglycine (Triglycine),11:0,carboxylic_acid:amine_primary,11(carboxylic_acid) > 0(amine_primary)
NCC(=O)NCC(=O)NCCC(O)=O,7.89,12:0,carboxylic_acid:amine_primary,Glycylglycyl-beta-alanine,12:0,carboxylic_acid:amine_primary,12(carboxylic_acid) > 0(amine_primary)
NCC(=O)NCC(=O)NCCC(O)=O,4.04,12:0,carboxylic_acid:amine_primary,Glycylglycyl-beta-alanine,12:0,carboxylic_acid:amine_primary,12(carboxylic_acid) > 0(amine_primary)
NCC(=O)NCCC(=O)NCC(O)=O,8.05,12:0,carboxylic_acid:amine_primary,Glycyl-beta-alanylglycine,12:0,carboxylic_acid:amine_primary,12(carboxylic_acid) > 0(amine_primary)
NCC(=O)NCCC(=O)NCC(O)=O,3.3,12:0,carboxylic_acid:amine_primary,Glycyl-beta-alanylglycine,12:0,carboxylic_acid:amine_primary,12(carboxylic_acid) > 0(amine_primary)
NCCC(=O)NCC(=O)NCC(O)=O,9.25,12:0,carboxylic_acid:amine_primary,beta-Alanylglycylglycine,12:0,carboxylic_acid:amine_primary,12(carboxylic_acid) > 0(amine_primary)
NCCC(=O)NCC(=O)NCC(O)=O,3.19,12:0,carboxylic_acid:amine_primary,beta-Alanylglycylglycine,12:0,carboxylic_acid:amine_primary,12(carboxylic_acid) > 0(amine_primary)
C[C@H](NC(=O)CNC(=O)CN)C(O)=O,7.9,12:10,carboxylic_acid:amine_primary,Glycylglycyl-L-alanine,12:10,carboxylic_acid:amine_primary,12(carboxylic_acid) > 10(amine_primary)
C[C@H](NC(=O)CNC(=O)CN)C(O)=O,3.18,12:10,carboxylic_acid:amine_primary,Glycylglycyl-L-alanine,12:10,carboxylic_acid:amine_primary,12(carboxylic_acid) > 10(amine_primary)
C[C@H](NC(=O)CN)C(=O)NCC(O)=O,7.96,12:6,carboxylic_acid:amine_primary,Glycyl-L-alanylglycine,12:6,carboxylic_acid:amine_primary,12(carboxylic_acid) > 6(amine_primary)
C[C@H](NC(=O)CN)C(=O)NCC(O)=O,3.34,12:6,carboxylic_acid:amine_primary,Glycyl-L-alanylglycine,12:6,carboxylic_acid:amine_primary,12(carboxylic_acid) > 6(amine_primary)
C[C@H](N)C(=O)NCC(=O)NCC(O)=O,7.89,12:2,carboxylic_acid:amine_primary,L-Alanylglycylglycine,12:2,carboxylic_acid:amine_primary,12(carboxylic_acid) > 2(amine_primary)
C[C@H](N)C(=O)NCC(=O)NCC(O)=O,3.27,12:2,carboxylic_acid:amine_primary,L-Alanylglycylglycine,12:2,carboxylic_acid:amine_primary,12(carboxylic_acid) > 2(amine_primary)
C[C@H](NC(=O)[C@H](C)NC(=O)CN)C(O)=O,7.99,13:11,carboxylic_acid:amine_primary,Glycyl-L-alanyl-L-alanine,13:11,carboxylic_acid:amine_primary,13(carboxylic_acid) > 11(amine_primary)
C[C@H](NC(=O)[C@H](C)NC(=O)CN)C(O)=O,3.27,13:11,carboxylic_acid:amine_primary,Glycyl-L-alanyl-L-alanine,13:11,carboxylic_acid:amine_primary,13(carboxylic_acid) > 11(amine_primary)
C[C@@H](NC(=O)[C@H](C)NC(=O)CN)C(O)=O,8.06,13:11,carboxylic_acid:amine_primary,Glycyl-L-alanyl-D-alanine,13:11,carboxylic_acid:amine_primary,13(carboxylic_acid) > 11(amine_primary)
C[C@@H](NC(=O)[C@H](C)NC(=O)CN)C(O)=O,3.19,13:11,carboxylic_acid:amine_primary,Glycyl-L-alanyl-D-alanine,13:11,carboxylic_acid:amine_primary,13(carboxylic_acid) > 11(amine_primary)
C[C@H](N)C(=O)N[C@@H](C)C(=O)N[C@@H](C)C(O)=O,7.92,14:2,carboxylic_acid:amine_primary,L-Alanyl-L-alanyl-L-alanine,14:2,carboxylic_acid:amine_primary,14(carboxylic_acid) > 2(amine_primary)
C[C@H](N)C(=O)N[C@@H](C)C(=O)N[C@@H](C)C(O)=O,3.28,14:2,carboxylic_acid:amine_primary,L-Alanyl-L-alanyl-L-alanine,14:2,carboxylic_acid:amine_primary,14(carboxylic_acid) > 2(amine_primary)
C[C@H](N)C(=O)N[C@@H](C)C(=O)N[C@H](C)C(O)=O,7.94,14:2,carboxylic_acid:amine_primary,L-Alanyl-L-alanyl-D-alanine,14:2,carboxylic_acid:amine_primary,14(carboxylic_acid) > 2(amine_primary)
C[C@H](N)C(=O)N[C@@H](C)C(=O)N[C@H](C)C(O)=O,3.26,14:2,carboxylic_acid:amine_primary,L-Alanyl-L-alanyl-D-alanine,14:2,carboxylic_acid:amine_primary,14(carboxylic_acid) > 2(amine_primary)
C[C@H](N)C(=O)N[C@H](C)C(=O)N[C@@H](C)C(O)=O,8.02,14:2,carboxylic_acid:amine_primary,L-Alanyl-D-alanyl-L-alanine,14:2,carboxylic_acid:amine_primary,14(carboxylic_acid) > 2(amine_primary)
C[C@H](N)C(=O)N[C@H](C)C(=O)N[C@@H](C)C(O)=O,3.2,14:2,carboxylic_acid:amine_primary,L-Alanyl-D-alanyl-L-alanine,14:2,carboxylic_acid:amine_primary,14(carboxylic_acid) > 2(amine_primary)
C[C@@H](N)C(=O)N[C@@H](C)C(=O)N[C@@H](C)C(O)=O,7.95,14:2,carboxylic_acid:amine_primary,D-Alanyl-L-alanyl-L-alanine,14:2,carboxylic_acid:amine_primary,14(carboxylic_acid) > 2(amine_primary)
C[C@@H](N)C(=O)N[C@@H](C)C(=O)N[C@@H](C)C(O)=O,3.26,14:2,carboxylic_acid:amine_primary,D-Alanyl-L-alanyl-L-alanine,14:2,carboxylic_acid:amine_primary,14(carboxylic_acid) > 2(amine_primary)
C[C@@H](N)C(=O)N[C@H](C)C(=O)N[C@H](C)C(O)=O,7.95,14:2,carboxylic_acid:amine_primary,D-Alanyl-D-alanyl-D-alanine,14:2,carboxylic_acid:amine_primary,14(carboxylic_acid) > 2(amine_primary)
C[C@@H](N)C(=O)N[C@H](C)C(=O)N[C@H](C)C(O)=O,3.28,14:2,carboxylic_acid:amine_primary,D-Alanyl-D-alanyl-D-alanine,14:2,carboxylic_acid:amine_primary,14(carboxylic_acid) > 2(amine_primary)
CC(C)C[C@H](N)C(=O)NCC(=O)NCC(O)=O,7.75,15:5,carboxylic_acid:amine_primary,L-Leucylglycylglycine,15:5,carboxylic_acid:amine_primary,15(carboxylic_acid) > 5(amine_primary)
CC(C)C[C@H](N)C(=O)NCC(=O)NCC(O)=O,3.23,15:5,carboxylic_acid:amine_primary,L-Leucylglycylglycine,15:5,carboxylic_acid:amine_primary,15(carboxylic_acid) > 5(amine_primary)
CC(C)C[C@H](NC(=O)[C@H](CC(C)C)NC(=O)CN)C(O)=O,8.1,19:17,carboxylic_acid:amine_primary,Glycyl-L-leucyl-L-leucine,19:17,carboxylic_acid:amine_primary,19(carboxylic_acid) > 17(amine_primary)
CC(C)C[C@H](NC(=O)[C@H](CC(C)C)NC(=O)CN)C(O)=O,3.52,19:17,carboxylic_acid:amine_primary,Glycyl-L-leucyl-L-leucine,19:17,carboxylic_acid:amine_primary,19(carboxylic_acid) > 17(amine_primary)
CC(C)C[C@@H](NC(=O)[C@H](CC(C)C)NC(=O)CN)C(O)=O,8.03,19:17,carboxylic_acid:amine_primary,Glycyl-L-leucyl-D-leucine,19:17,carboxylic_acid:amine_primary,19(carboxylic_acid) > 17(amine_primary)
CC(C)C[C@@H](NC(=O)[C@H](CC(C)C)NC(=O)CN)C(O)=O,3.42,19:17,carboxylic_acid:amine_primary,Glycyl-L-leucyl-D-leucine,19:17,carboxylic_acid:amine_primary,19(carboxylic_acid) > 17(amine_primary)