SMILES,pKa,Dissociable_Atoms,Functional_Group,Name
NCCCCCN,11.17,0:6,amine_primary:amine_primary,Pentamethylenediamine (Cadaverine)
NCCCCCN,10.8,0:6,amine_primary:amine_primary,Pentamethylenediamine (Cadaverine)
NCCCCCN,9.83,0:6,amine_primary:amine_primary,Pentamethylenediamine (Cadaverine)
NCCCCCN,10.05,0:6,amine_primary:amine_primary,Pentamethylenediamine (Cadaverine)
NCCCCCN,10.26,0:6,amine_primary:amine_primary,Pentamethylenediamine (Cadaverine)
NCCCCCN,9.56,0:6,amine_primary:amine_primary,Pentamethylenediamine (Cadaverine)
NCCCCCCN,10.95,0:7,amine_primary:amine_primary,Hexamethylenediamine
NCCCCCCN,11.04,0:7,amine_primary:amine_primary,Hexamethylenediamine
NCCCCCCN,11.22,0:7,amine_primary:amine_primary,Hexamethylenediamine
NCCCCCCN,10.93,0:7,amine_primary:amine_primary,Hexamethylenediamine
NCCCCCCN,10.07,0:7,amine_primary:amine_primary,Hexamethylenediamine
NCCCCCCN,10.28,0:7,amine_primary:amine_primary,Hexamethylenediamine
NCCCCCCN,10.48,0:7,amine_primary:amine_primary,Hexamethylenediamine
NCCCCCCN,9.83,0:7,amine_primary:amine_primary,Hexamethylenediamine
NCCCCCCCCN,10.99,0:9,amine_primary:amine_primary,Octamethylenediamine
NCCCCCCCCN,11.12,0:9,amine_primary:amine_primary,Octamethylenediamine
NCCCCCCCCN,11.28,0:9,amine_primary:amine_primary,Octamethylenediamine
NCCCCCCCCN,10.93,0:9,amine_primary:amine_primary,Octamethylenediamine
NCCCCCCCCN,10.17,0:9,amine_primary:amine_primary,Octamethylenediamine
NCCCCCCCCN,10.42,0:9,amine_primary:amine_primary,Octamethylenediamine
NCCCCCCCCN,10.55,0:9,amine_primary:amine_primary,Octamethylenediamine
NCCCCCCCCN,9.95,0:9,amine_primary:amine_primary,Octamethylenediamine
NC1(CCCCC1)C2(N)CCCCC2,10.41,0:8,amine_primary:amine_primary,"Bicyclohexyl-1,1'-diamine"
NC1(CCCCC1)C2(N)CCCCC2,5.62,0:8,amine_primary:amine_primary,"Bicyclohexyl-1,1'-diamine"
NCC(O)CN,9.56,0:5,amine_primary:amine_primary,"1,3-Diamino-2-propanol (2-Hydroxytrimethylenediamine)"
NCC(O)CN,9.68,0:5,amine_primary:amine_primary,"1,3-Diamino-2-propanol (2-Hydroxytrimethylenediamine)"
NCC(O)CN,9.82,0:5,amine_primary:amine_primary,"1,3-Diamino-2-propanol (2-Hydroxytrimethylenediamine)"
NCC(O)CN,10.08,0:5,amine_primary:amine_primary,"1,3-Diamino-2-propanol (2-Hydroxytrimethylenediamine)"
NCC(O)CN,10.4,0:5,amine_primary:amine_primary,"1,3-Diamino-2-propanol (2-Hydroxytrimethylenediamine)"
NCC(O)CN,9.55,0:5,amine_primary:amine_primary,"1,3-Diamino-2-propanol (2-Hydroxytrimethylenediamine)"
NCC(O)CN,8.02,0:5,amine_primary:amine_primary,"1,3-Diamino-2-propanol (2-Hydroxytrimethylenediamine)"
NCC(O)CN,8.19,0:5,amine_primary:amine_primary,"1,3-Diamino-2-propanol (2-Hydroxytrimethylenediamine)"
NCC(O)CN,8.36,0:5,amine_primary:amine_primary,"1,3-Diamino-2-propanol (2-Hydroxytrimethylenediamine)"
NCC(O)CN,8.62,0:5,amine_primary:amine_primary,"1,3-Diamino-2-propanol (2-Hydroxytrimethylenediamine)"
NCC(O)CN,8.89,0:5,amine_primary:amine_primary,"1,3-Diamino-2-propanol (2-Hydroxytrimethylenediamine)"
NCC(O)CN,7.78,0:5,amine_primary:amine_primary,"1,3-Diamino-2-propanol (2-Hydroxytrimethylenediamine)"
COC(=O)C(N)CCCN,8.32,5:9,amine_primary:amine_primary,"DL-2,5-Diaminopentanoic acid methyl ester (DL-Ornithine methyl ester)"
COC(=O)C(N)CCCN,6.73,5:9,amine_primary:amine_primary,"DL-2,5-Diaminopentanoic acid methyl ester (DL-Ornithine methyl ester)"
COC(=O)C(N)CCCCN,10.25,5:10,amine_primary:amine_primary,"DL-2,6-Diaminohexanoic acid methyl ester (DL-Lysine methyl ester)"
COC(=O)C(N)CCCCN,9.9,5:10,amine_primary:amine_primary,"DL-2,6-Diaminohexanoic acid methyl ester (DL-Lysine methyl ester)"
COC(=O)C(N)CCCCN,7.19,5:10,amine_primary:amine_primary,"DL-2,6-Diaminohexanoic acid methyl ester (DL-Lysine methyl ester)"
COC(=O)C(N)CCCCN,6.89,5:10,amine_primary:amine_primary,"DL-2,6-Diaminohexanoic acid methyl ester (DL-Lysine methyl ester)"
NCC(=O)NCCCNC(=O)CN,8.4,0:12,amine_primary:amine_primary,"N,N'-Diglycyltrimethylenediamine"
NCC(=O)NCCCNC(=O)CN,7.72,0:12,amine_primary:amine_primary,"N,N'-Diglycyltrimethylenediamine"
NCC(=O)NCCCCNC(=O)CN,8.41,0:13,amine_primary:amine_primary,"N,N'-Diglycyltetramethylenediamine"
NCC(=O)NCCCCNC(=O)CN,7.78,0:13,amine_primary:amine_primary,"N,N'-Diglycyltetramethylenediamine"
NCC(=O)NCCCCCNC(=O)CN,8.36,0:14,amine_primary:amine_primary,"N,N'-Diglycylpentamethylenediamine"
NCC(=O)NCCCCCNC(=O)CN,7.73,0:14,amine_primary:amine_primary,"N,N'-Diglycylpentamethylenediamine"
NCC(=O)NCCCCCCNC(=O)CN,8.41,0:15,amine_primary:amine_primary,"N,N'-Diglycylhexamethylenediamine"
NCC(=O)NCCCCCCNC(=O)CN,7.78,0:15,amine_primary:amine_primary,"N,N'-Diglycylhexamethylenediamine"
NCC(=O)NCCCCCCCCNC(=O)CN,8.41,0:17,amine_primary:amine_primary,"N,N'-Diglycyloctamethylenediamine"
NCC(=O)NCCCCCCCCNC(=O)CN,7.75,0:17,amine_primary:amine_primary,"N,N'-Diglycyloctamethylenediamine"
NCCNC(=O)C(=O)NCCN,9.23,0:11,amine_primary:amine_primary,"N,N'-Bis(2-aminoethyl)oxamide (BAO)(5,6-Dioxo-1,4,7,10-tetraazadecane)"
NCCNC(=O)C(=O)NCCN,9.31,0:11,amine_primary:amine_primary,"N,N'-Bis(2-aminoethyl)oxamide (BAO)(5,6-Dioxo-1,4,7,10-tetraazadecane)"
NCCNC(=O)C(=O)NCCN,9.54,0:11,amine_primary:amine_primary,"N,N'-Bis(2-aminoethyl)oxamide (BAO)(5,6-Dioxo-1,4,7,10-tetraazadecane)"
NCCNC(=O)C(=O)NCCN,8.45,0:11,amine_primary:amine_primary,"N,N'-Bis(2-aminoethyl)oxamide (BAO)(5,6-Dioxo-1,4,7,10-tetraazadecane)"
NCCNC(=O)C(=O)NCCN,8.43,0:11,amine_primary:amine_primary,"N,N'-Bis(2-aminoethyl)oxamide (BAO)(5,6-Dioxo-1,4,7,10-tetraazadecane)"
NCCNC(=O)C(=O)NCCN,8.3,0:11,amine_primary:amine_primary,"N,N'-Bis(2-aminoethyl)oxamide (BAO)(5,6-Dioxo-1,4,7,10-tetraazadecane)"
NCCCNC(=O)C(=O)NCCCN,10.13,0:13,amine_primary:amine_primary,"N,N'-Bis(3-aminopropyl)oxamide (6,7-Dioxo-1,5,8,12-tetraazadodecane)"
NCCCNC(=O)C(=O)NCCCN,9.41,0:13,amine_primary:amine_primary,"N,N'-Bis(3-aminopropyl)oxamide (6,7-Dioxo-1,5,8,12-tetraazadodecane)"
NCCNC(=O)CC(=O)NCCN,8.96,0:12,amine_primary:amine_primary,"N,N'-Bis(2-aminoethyl)malonamide (BAM)(5,7-Dioxo-1,4,8,11-tetraazaundecane)"
NCCNC(=O)CC(=O)NCCN,9.4,0:12,amine_primary:amine_primary,"N,N'-Bis(2-aminoethyl)malonamide (BAM)(5,7-Dioxo-1,4,8,11-tetraazaundecane)"
NCCNC(=O)CC(=O)NCCN,8.7,0:12,amine_primary:amine_primary,"N,N'-Bis(2-aminoethyl)malonamide (BAM)(5,7-Dioxo-1,4,8,11-tetraazaundecane)"
NCCNC(=O)CC(=O)NCCN,8.68,0:12,amine_primary:amine_primary,"N,N'-Bis(2-aminoethyl)malonamide (BAM)(5,7-Dioxo-1,4,8,11-tetraazaundecane)"
NON=C(N)C=NO,11.37,0:4,amine_primary:amine_primary,Oxamide dioxime (Diaminoglyoxime)
NON=C(N)C=NO,2.95,0:4,amine_primary:amine_primary,Oxamide dioxime (Diaminoglyoxime)
NCCCC[C@H](N)C(=O)NO,10.66,0:6:9,amine_primary:amine_primary:amine_secondary,"L-2,6-Diaminohexanohydroxamic acid (Lysinehydroxamic acid)"
NCCCC[C@H](N)C(=O)NO,8.89,0:6:9,amine_primary:amine_primary:amine_secondary,"L-2,6-Diaminohexanohydroxamic acid (Lysinehydroxamic acid)"
NCCCC[C@H](N)C(=O)NO,7.01,0:6:9,amine_primary:amine_primary:amine_secondary,"L-2,6-Diaminohexanohydroxamic acid (Lysinehydroxamic acid)"
NCCCSCCN,10.14,0:7,amine_primary:amine_primary,"4-Thia-1,8-diazaoctane"
NCCCSCCN,9.16,0:7,amine_primary:amine_primary,"4-Thia-1,8-diazaoctane"
NCCCCSCCN,10.44,0:8,amine_primary:amine_primary,"4-Thia-1,9-diazanonane"
NCCCCSCCN,9.25,0:8,amine_primary:amine_primary,"4-Thia-1,9-diazanonane"
NCCCSCCCN,10.37,0:8,amine_primary:amine_primary,"5-Thia-1,9-diazanonane"
NCCCSCCCN,9.63,0:8,amine_primary:amine_primary,"5-Thia-1,9-diazanonane"
NCCCCSCCCN,10.51,0:9,amine_primary:amine_primary,"5-Thia-1,10-diazadecane"
NCCCCSCCCN,9.81,0:9,amine_primary:amine_primary,"5-Thia-1,10-diazadecane"
NCCCCSCCCCN,10.73,0:10,amine_primary:amine_primary,"6-Thia-1,11-diazaundecane"
NCCCCSCCCCN,10.05,0:10,amine_primary:amine_primary,"6-Thia-1,11-diazaundecane"
NCCOCCSCCN,9.61,0:9,amine_primary:amine_primary,"4-Oxa-7-thia-1,10-diazadecane"
NCCOCCSCCN,8.68,0:9,amine_primary:amine_primary,"4-Oxa-7-thia-1,10-diazadecane"
NCC(N)CN,9.55,0:3:5,amine_primary:amine_primary:amine_primary,"1,2,3-Triaminopropane"
NCC(N)CN,9.63,0:3:5,amine_primary:amine_primary:amine_primary,"1,2,3-Triaminopropane"
NCC(N)CN,7.9,0:3:5,amine_primary:amine_primary:amine_primary,"1,2,3-Triaminopropane"
NCC(N)CN,8.08,0:3:5,amine_primary:amine_primary:amine_primary,"1,2,3-Triaminopropane"
NCC(N)CN,3.66,0:3:5,amine_primary:amine_primary:amine_primary,"1,2,3-Triaminopropane"
NCC(N)CN,3.99,0:3:5,amine_primary:amine_primary:amine_primary,"1,2,3-Triaminopropane"
CC(C)(N)CNC1CCCCC1,10.18,3:5,amine_primary:amine_secondary,"2-(Cyclohexylaminomethyl)-2-propylamine (N-Cyclohexyl-2,2-dimethylethylenediamine)"
CC(C)(N)CNC1CCCCC1,6.77,3:5,amine_primary:amine_secondary,"2-(Cyclohexylaminomethyl)-2-propylamine (N-Cyclohexyl-2,2-dimethylethylenediamine)"
NCCNCc1ccccc1,9.41,0:3,amine_primary:amine_secondary,N-Benzylethylenediamine
NCCNCc1ccccc1,6.48,0:3,amine_primary:amine_secondary,N-Benzylethylenediamine
Cc1ccc(CNCCN)cc1,9.41,6:9,amine_secondary:amine_primary,N-(4-Methylbenzyl)ethylenediamine
Cc1ccc(CNCCN)cc1,6.51,6:9,amine_secondary:amine_primary,N-(4-Methylbenzyl)ethylenediamine
NCCNCCc1ccccc1,9.44,0:3,amine_primary:amine_secondary,N-(2-Phenylethyl)ethylenediamine
NCCNCCc1ccccc1,6.59,0:3,amine_primary:amine_secondary,N-(2-Phenylethyl)ethylenediamine
CNCCNC,10.05,1:4,amine_secondary:amine_secondary,"N,N'-Dimethylethylenediamine"
CNCCNC,10.16,1:4,amine_secondary:amine_secondary,"N,N'-Dimethylethylenediamine"
CNCCNC,10.34,1:4,amine_secondary:amine_secondary,"N,N'-Dimethylethylenediamine"
CNCCNC,10.77,1:4,amine_secondary:amine_secondary,"N,N'-Dimethylethylenediamine"
CNCCNC,10.03,1:4,amine_secondary:amine_secondary,"N,N'-Dimethylethylenediamine"
CNCCNC,7.04,1:4,amine_secondary:amine_secondary,"N,N'-Dimethylethylenediamine"
CNCCNC,7.3,1:4,amine_secondary:amine_secondary,"N,N'-Dimethylethylenediamine"
CNCCNC,7.52,1:4,amine_secondary:amine_secondary,"N,N'-Dimethylethylenediamine"
CNCCNC,7.91,1:4,amine_secondary:amine_secondary,"N,N'-Dimethylethylenediamine"
CNCCNC,6.8,1:4,amine_secondary:amine_secondary,"N,N'-Dimethylethylenediamine"
CCNCCNCC,10.16,2:5,amine_secondary:amine_secondary,"N,N'-Diethylethylenediamine"
CCNCCNCC,10.32,2:5,amine_secondary:amine_secondary,"N,N'-Diethylethylenediamine"
CCNCCNCC,10.5,2:5,amine_secondary:amine_secondary,"N,N'-Diethylethylenediamine"
CCNCCNCC,10.88,2:5,amine_secondary:amine_secondary,"N,N'-Diethylethylenediamine"
CCNCCNCC,10.1,2:5,amine_secondary:amine_secondary,"N,N'-Diethylethylenediamine"
CCNCCNCC,7.28,2:5,amine_secondary:amine_secondary,"N,N'-Diethylethylenediamine"
CCNCCNCC,7.5,2:5,amine_secondary:amine_secondary,"N,N'-Diethylethylenediamine"
CCNCCNCC,7.73,2:5,amine_secondary:amine_secondary,"N,N'-Diethylethylenediamine"
CCNCCNCC,8.06,2:5,amine_secondary:amine_secondary,"N,N'-Diethylethylenediamine"
CCNCCNCC,6.96,2:5,amine_secondary:amine_secondary,"N,N'-Diethylethylenediamine"
CC(C)NCCNC(C)C,10.25,3:6,amine_secondary:amine_secondary,"N,N'-Di-2-propylethylenediamine"
CC(C)NCCNC(C)C,7.44,3:6,amine_secondary:amine_secondary,"N,N'-Di-2-propylethylenediamine"
CCCNCCNCCC,10.12,3:6,amine_secondary:amine_secondary,"N,N'-Dipropylethylenediamine"
CCCNCCNCCC,7.38,3:6,amine_secondary:amine_secondary,"N,N'-Dipropylethylenediamine"
CCCCNCCNCCCC,10.04,4:7,amine_secondary:amine_secondary,"N,N'-Dibutylethylenediamine"
CCCCNCCNCCCC,7.31,4:7,amine_secondary:amine_secondary,"N,N'-Dibutylethylenediamine"
CNCCCNC,10.64,1:5,amine_secondary:amine_secondary,"N,N'-Dimethyltrimethylenediamine"
CNCCCNC,10.81,1:5,amine_secondary:amine_secondary,"N,N'-Dimethyltrimethylenediamine"
CNCCCNC,10.96,1:5,amine_secondary:amine_secondary,"N,N'-Dimethyltrimethylenediamine"
CNCCCNC,11.35,1:5,amine_secondary:amine_secondary,"N,N'-Dimethyltrimethylenediamine"
CNCCCNC,10.6,1:5,amine_secondary:amine_secondary,"N,N'-Dimethyltrimethylenediamine"
CNCCCNC,8.81,1:5,amine_secondary:amine_secondary,"N,N'-Dimethyltrimethylenediamine"
CNCCCNC,9.11,1:5,amine_secondary:amine_secondary,"N,N'-Dimethyltrimethylenediamine"
CNCCCNC,9.26,1:5,amine_secondary:amine_secondary,"N,N'-Dimethyltrimethylenediamine"
CNCCCNC,9.71,1:5,amine_secondary:amine_secondary,"N,N'-Dimethyltrimethylenediamine"
CNCCCNC,8.52,1:5,amine_secondary:amine_secondary,"N,N'-Dimethyltrimethylenediamine"
CNCC(=C)CNC,10.42,1:6,amine_secondary:amine_secondary,"N,N'-Dimethyl-2-methylenetrimethylenediamine"
CNCC(=C)CNC,8.39,1:6,amine_secondary:amine_secondary,"N,N'-Dimethyl-2-methylenetrimethylenediamine"
CC[C@@H](CO)NCCN[C@@H](CC)CO,9.05,5:8,amine_secondary:amine_secondary,D(+)-Ethylenebis(2-iminobutanol) (Ethambutol)
CC[C@@H](CO)NCCN[C@@H](CC)CO,6.05,5:8,amine_secondary:amine_secondary,D(+)-Ethylenebis(2-iminobutanol) (Ethambutol)
CC(=O)CC(C)(C)NCCNC(C)(C)CC(C)=O,9.41,7:10,amine_secondary:amine_secondary,"Ethylenebis[imino-4-(4-methylpentan-2-one)] (4,4,9,9-Tetramethyl-5,8-diazadodecan-2,11-dione)"
CC(=O)CC(C)(C)NCCNC(C)(C)CC(C)=O,6.19,7:10,amine_secondary:amine_secondary,"Ethylenebis[imino-4-(4-methylpentan-2-one)] (4,4,9,9-Tetramethyl-5,8-diazadodecan-2,11-dione)"
CC(C)(S)CNCCNCC(C)(C)S,10.99,3:5:8:13,thiol:amine_secondary:amine_secondary:thiol,"N,N'-Bis(2,2-dimethyl-2-mercaptoethyl)ethylenediamine"
CC(C)(S)CNCCNCC(C)(C)S,9.72,3:5:8:13,thiol:amine_secondary:amine_secondary:thiol,"N,N'-Bis(2,2-dimethyl-2-mercaptoethyl)ethylenediamine"
CC(C)(S)CNCCNCC(C)(C)S,7.79,3:5:8:13,thiol:amine_secondary:amine_secondary:thiol,"N,N'-Bis(2,2-dimethyl-2-mercaptoethyl)ethylenediamine"
CC(C)(S)CNCCNCC(C)(C)S,5.56,3:5:8:13,thiol:amine_secondary:amine_secondary:thiol,"N,N'-Bis(2,2-dimethyl-2-mercaptoethyl)ethylenediamine"
CNCCSCCN,9.86,1:7,amine_secondary:amine_primary,"4-Thia-1,7-diazaoctane"
CNCCSCCN,8.89,1:7,amine_secondary:amine_primary,"4-Thia-1,7-diazaoctane"
CNCCSCCCN,10.26,1:8,amine_secondary:amine_primary,"5-Thia-1,8-diazanonane"
CNCCSCCCN,9.44,1:8,amine_secondary:amine_primary,"5-Thia-1,8-diazanonane"
CNCCSCCCCN,10.51,1:9,amine_secondary:amine_primary,"6-Thia-1,9-diazadecane"
CNCCSCCCCN,9.55,1:9,amine_secondary:amine_primary,"6-Thia-1,9-diazadecane"
CNCCSCCNC,9.91,1:7,amine_secondary:amine_secondary,"5-Thia-2,8-diazanonane"
CNCCSCCNC,8.94,1:7,amine_secondary:amine_secondary,"5-Thia-2,8-diazanonane"
CSCCCNCCNCCCSC,9.74,5:8,amine_secondary:amine_secondary,"2,13-Dithia-6,9-diazatetradecane"
CSCCCNCCNCCCSC,6.89,5:8,amine_secondary:amine_secondary,"2,13-Dithia-6,9-diazatetradecane"
CNCCSCCOCCSCCNC,9.84,1:13,amine_secondary:amine_secondary,"8-Oxa-5,11-dithia-2,14-diazapentadecane"
CNCCSCCOCCSCCNC,9.06,1:13,amine_secondary:amine_secondary,"8-Oxa-5,11-dithia-2,14-diazapentadecane"
CC(CC(C)(C)NCCNC(C)(C)CC(C)=NO)=NO,9.41,6:9,amine_secondary:amine_secondary,"Ethylenebis[imino-4-(4-methylpentan-2-one oxime)] (4,4,9,9-Tetramethyl-5,8-diazadodecane-2,11-dione dioxime)"
CC(CC(C)(C)NCCNC(C)(C)CC(C)=NO)=NO,9.35,6:9,amine_secondary:amine_secondary,"Ethylenebis[imino-4-(4-methylpentan-2-one oxime)] (4,4,9,9-Tetramethyl-5,8-diazadodecane-2,11-dione dioxime)"
CC(CC(C)(C)NCCNC(C)(C)CC(C)=NO)=NO,6.35,6:9,amine_secondary:amine_secondary,"Ethylenebis[imino-4-(4-methylpentan-2-one oxime)] (4,4,9,9-Tetramethyl-5,8-diazadodecane-2,11-dione dioxime)"
CC(CC(C)(C)NCCNC(C)(C)CC(C)=NO)=NO,5.89,6:9,amine_secondary:amine_secondary,"Ethylenebis[imino-4-(4-methylpentan-2-one oxime)] (4,4,9,9-Tetramethyl-5,8-diazadodecane-2,11-dione dioxime)"
NCCCCNCCCN,10.85,0:5:9,amine_primary:amine_secondary:amine_primary,"1,5,10-Triazadecane (3,4-tri)(Spermidine)"
NCCCCNCCCN,9.83,0:5:9,amine_primary:amine_secondary:amine_primary,"1,5,10-Triazadecane (3,4-tri)(Spermidine)"
NCCCCNCCCN,8.4,0:5:9,amine_primary:amine_secondary:amine_primary,"1,5,10-Triazadecane (3,4-tri)(Spermidine)"
CNCCCNCCCN,10.68,1:5:9,amine_secondary:amine_secondary:amine_primary,"1,5,9-Triazadecane"
CNCCCNCCCN,9.69,1:5:9,amine_secondary:amine_secondary:amine_primary,"1,5,9-Triazadecane"
CNCCCNCCCN,7.03,1:5:9,amine_secondary:amine_secondary:amine_primary,"1,5,9-Triazadecane"
CCNCCNCCNCC,10.51,2:5:8,amine_secondary:amine_secondary:amine_secondary,"3,6,9-Triazaundecane (N,N''-Diethyldiethylenetriamine)"
CCNCCNCCNCC,9.85,2:5:8,amine_secondary:amine_secondary:amine_secondary,"3,6,9-Triazaundecane (N,N''-Diethyldiethylenetriamine)"
CCNCCNCCNCC,4.31,2:5:8,amine_secondary:amine_secondary:amine_secondary,"3,6,9-Triazaundecane (N,N''-Diethyldiethylenetriamine)"
NCCNCCCNCCN,10.08,0:3:7:10,amine_primary:amine_secondary:amine_secondary:amine_primary,"1,4,8,11-Tetraazaundecane (2,3,2-tet)"
NCCNCCCNCCN,10.25,0:3:7:10,amine_primary:amine_secondary:amine_secondary:amine_primary,"1,4,8,11-Tetraazaundecane (2,3,2-tet)"
NCCNCCCNCCN,10.28,0:3:7:10,amine_primary:amine_secondary:amine_secondary:amine_primary,"1,4,8,11-Tetraazaundecane (2,3,2-tet)"
NCCNCCCNCCN,9.26,0:3:7:10,amine_primary:amine_secondary:amine_secondary:amine_primary,"1,4,8,11-Tetraazaundecane (2,3,2-tet)"
NCCNCCCNCCN,9.5,0:3:7:10,amine_primary:amine_secondary:amine_secondary:amine_primary,"1,4,8,11-Tetraazaundecane (2,3,2-tet)"
NCCNCCCNCCN,9.58,0:3:7:10,amine_primary:amine_secondary:amine_secondary:amine_primary,"1,4,8,11-Tetraazaundecane (2,3,2-tet)"
NCCNCCCNCCN,6.88,0:3:7:10,amine_primary:amine_secondary:amine_secondary:amine_primary,"1,4,8,11-Tetraazaundecane (2,3,2-tet)"
NCCNCCCNCCN,7.28,0:3:7:10,amine_primary:amine_secondary:amine_secondary:amine_primary,"1,4,8,11-Tetraazaundecane (2,3,2-tet)"
NCCNCCCNCCN,7.39,0:3:7:10,amine_primary:amine_secondary:amine_secondary:amine_primary,"1,4,8,11-Tetraazaundecane (2,3,2-tet)"
NCCNCCCNCCN,5.45,0:3:7:10,amine_primary:amine_secondary:amine_secondary:amine_primary,"1,4,8,11-Tetraazaundecane (2,3,2-tet)"
NCCNCCCNCCN,6.02,0:3:7:10,amine_primary:amine_secondary:amine_secondary:amine_primary,"1,4,8,11-Tetraazaundecane (2,3,2-tet)"
NCCNCCCNCCN,6.08,0:3:7:10,amine_primary:amine_secondary:amine_secondary:amine_primary,"1,4,8,11-Tetraazaundecane (2,3,2-tet)"
CC(N)CC(C)(C)NCCNC(C)(C)CC(C)N,11.09,2:7:10:17,amine_primary:amine_secondary:amine_secondary:amine_primary,"2,4,4,9,9,11-Hexamethyl-1,5,8,12-tetraazadodecane (4,4,9,9-Tetramethyl-5,8-diazadodecane-2,11-diamine)"
CC(N)CC(C)(C)NCCNC(C)(C)CC(C)N,10.06,2:7:10:17,amine_primary:amine_secondary:amine_secondary:amine_primary,"2,4,4,9,9,11-Hexamethyl-1,5,8,12-tetraazadodecane (4,4,9,9-Tetramethyl-5,8-diazadodecane-2,11-diamine)"
CC(N)CC(C)(C)NCCNC(C)(C)CC(C)N,7.61,2:7:10:17,amine_primary:amine_secondary:amine_secondary:amine_primary,"2,4,4,9,9,11-Hexamethyl-1,5,8,12-tetraazadodecane (4,4,9,9-Tetramethyl-5,8-diazadodecane-2,11-diamine)"
CC(N)CC(C)(C)NCCNC(C)(C)CC(C)N,4.9,2:7:10:17,amine_primary:amine_secondary:amine_secondary:amine_primary,"2,4,4,9,9,11-Hexamethyl-1,5,8,12-tetraazadodecane (4,4,9,9-Tetramethyl-5,8-diazadodecane-2,11-diamine)"
NCCCNCCCCNCCCN,10.82,0:4:9:13,amine_primary:amine_secondary:amine_secondary:amine_primary,"1,5,10,14-Tetraazatetradecane (3,4,3-tet)(Spermine)"
NCCCNCCCCNCCCN,9.99,0:4:9:13,amine_primary:amine_secondary:amine_secondary:amine_primary,"1,5,10,14-Tetraazatetradecane (3,4,3-tet)(Spermine)"
NCCCNCCCCNCCCN,8.85,0:4:9:13,amine_primary:amine_secondary:amine_secondary:amine_primary,"1,5,10,14-Tetraazatetradecane (3,4,3-tet)(Spermine)"
NCCCNCCCCNCCCN,7.91,0:4:9:13,amine_primary:amine_secondary:amine_secondary:amine_primary,"1,5,10,14-Tetraazatetradecane (3,4,3-tet)(Spermine)"
NCCCCNCCCNCCCN,11.03,0:5:9:13,amine_primary:amine_secondary:amine_secondary:amine_primary,"1,5,9,14-Tetraazatetradecane (3,3,4-tet)(Thermospermine)"
NCCCCNCCCNCCCN,10.38,0:5:9:13,amine_primary:amine_secondary:amine_secondary:amine_primary,"1,5,9,14-Tetraazatetradecane (3,3,4-tet)(Thermospermine)"
NCCCCNCCCNCCCN,9.12,0:5:9:13,amine_primary:amine_secondary:amine_secondary:amine_primary,"1,5,9,14-Tetraazatetradecane (3,3,4-tet)(Thermospermine)"
NCCCCNCCCNCCCN,7.47,0:5:9:13,amine_primary:amine_secondary:amine_secondary:amine_primary,"1,5,9,14-Tetraazatetradecane (3,3,4-tet)(Thermospermine)"
CNCCNCCNCCNC,10.75,1:4:7:10,amine_secondary:amine_secondary:amine_secondary:amine_secondary,"2,5,8,11-Tetraazadodecane"
CNCCNCCNCCNC,9.68,1:4:7:10,amine_secondary:amine_secondary:amine_secondary:amine_secondary,"2,5,8,11-Tetraazadodecane"
CNCCNCCNCCNC,7.59,1:4:7:10,amine_secondary:amine_secondary:amine_secondary:amine_secondary,"2,5,8,11-Tetraazadodecane"