SMILES,pKa,Dissociable_Atoms,Functional_Group,Name
NCC(=O)N[C@@H](Cc1c[nH]cn1)C(=O)NCC(O)=O,8.62,17:0:4,carboxylic_acid:amine_primary:amine_secondary,Glycyl-L-histidylglycine
NCC(=O)N[C@@H](Cc1c[nH]cn1)C(=O)NCC(O)=O,6.56,17:0:4,carboxylic_acid:amine_primary:amine_secondary,Glycyl-L-histidylglycine
NCC(=O)N[C@@H](Cc1c[nH]cn1)C(=O)NCC(O)=O,6.24,17:0:4,carboxylic_acid:amine_primary:amine_secondary,Glycyl-L-histidylglycine
NCC(=O)N[C@@H](Cc1c[nH]cn1)C(=O)NCC(O)=O,6.92,17:0:4,carboxylic_acid:amine_primary:amine_secondary,Glycyl-L-histidylglycine
NCC(=O)N[C@@H](Cc1c[nH]cn1)C(=O)NCC(O)=O,7.54,17:0:4,carboxylic_acid:amine_primary:amine_secondary,Glycyl-L-histidylglycine
NCC(=O)N[C@@H](Cc1c[nH]cn1)C(=O)NCC(O)=O,3.1,17:0:4,carboxylic_acid:amine_primary:amine_secondary,Glycyl-L-histidylglycine
NCC(=O)N[C@@H](Cc1c[nH]cn1)C(=O)NCC(O)=O,2.91,17:0:4,carboxylic_acid:amine_primary:amine_secondary,Glycyl-L-histidylglycine
NCC(=O)N[C@@H](Cc1c[nH]cn1)C(=O)NCC(O)=O,3.26,17:0:4,carboxylic_acid:amine_primary:amine_secondary,Glycyl-L-histidylglycine
NCC(=O)N[C@@H](Cc1c[nH]cn1)C(=O)NCC(O)=O,3.57,17:0:4,carboxylic_acid:amine_primary:amine_secondary,Glycyl-L-histidylglycine
CNC(=O)[C@H](Cc1c[nH]cn1)NC(=O)[C@H](C)NC(=O)[C@@H](N)CC(O)=O,7.7,23:20:1,carboxylic_acid:amine_primary:amine_secondary,L-Aspartyl-L-alanyl-L-histidine methylamide
CNC(=O)[C@H](Cc1c[nH]cn1)NC(=O)[C@H](C)NC(=O)[C@@H](N)CC(O)=O,6.38,23:20:1,carboxylic_acid:amine_primary:amine_secondary,L-Aspartyl-L-alanyl-L-histidine methylamide
CNC(=O)[C@H](Cc1c[nH]cn1)NC(=O)[C@H](C)NC(=O)[C@@H](N)CC(O)=O,3.0,23:20:1,carboxylic_acid:amine_primary:amine_secondary,L-Aspartyl-L-alanyl-L-histidine methylamide
CC[C@H](C)[C@H](NC(=O)[C@H](Cc1ccc(O)cc1)NC(C)=O)C(=O)N[C@@H](Cc2c[nH]cn2)C(O)=O,9.78,32:5:17,carboxylic_acid:amine_secondary:amine_secondary,N-Acetyl-L-tyrosyl-L-isoleucyl-L-histidine
CC[C@H](C)[C@H](NC(=O)[C@H](Cc1ccc(O)cc1)NC(C)=O)C(=O)N[C@@H](Cc2c[nH]cn2)C(O)=O,7.02,32:5:17,carboxylic_acid:amine_secondary:amine_secondary,N-Acetyl-L-tyrosyl-L-isoleucyl-L-histidine
CC[C@H](C)[C@H](NC(=O)[C@H](Cc1ccc(O)cc1)NC(C)=O)C(=O)N[C@@H](Cc2c[nH]cn2)C(O)=O,2.95,32:5:17,carboxylic_acid:amine_secondary:amine_secondary,N-Acetyl-L-tyrosyl-L-isoleucyl-L-histidine
C[C@H](N)C(=O)N[C@@H](CCCCN)C(=O)N[C@@H](C)C(O)=O,10.19,18:2:11,carboxylic_acid:amine_primary:amine_primary,L-Alanyl-L-lysyl-L-alanine
C[C@H](N)C(=O)N[C@@H](CCCCN)C(=O)N[C@@H](C)C(O)=O,7.54,18:2:11,carboxylic_acid:amine_primary:amine_primary,L-Alanyl-L-lysyl-L-alanine
C[C@H](N)C(=O)N[C@@H](CCCCN)C(=O)N[C@@H](C)C(O)=O,3.04,18:2:11,carboxylic_acid:amine_primary:amine_primary,L-Alanyl-L-lysyl-L-alanine
C[C@H](N)C(=O)N[C@H](CCCCN)C(=O)N[C@@H](C)C(O)=O,10.25,18:2:11,carboxylic_acid:amine_primary:amine_primary,L-Alanyl-D-lysyl-L-alanine
C[C@H](N)C(=O)N[C@H](CCCCN)C(=O)N[C@@H](C)C(O)=O,7.86,18:2:11,carboxylic_acid:amine_primary:amine_primary,L-Alanyl-D-lysyl-L-alanine
C[C@H](N)C(=O)N[C@H](CCCCN)C(=O)N[C@@H](C)C(O)=O,3.19,18:2:11,carboxylic_acid:amine_primary:amine_primary,L-Alanyl-D-lysyl-L-alanine
C[C@H](N)C(=O)N[C@@H](CCCCN)C(=O)N[C@H](C)C(O)=O,10.38,18:2:11,carboxylic_acid:amine_primary:amine_primary,L-Alanyl-L-lysyl-D-alanine
C[C@H](N)C(=O)N[C@@H](CCCCN)C(=O)N[C@H](C)C(O)=O,7.73,18:2:11,carboxylic_acid:amine_primary:amine_primary,L-Alanyl-L-lysyl-D-alanine
C[C@H](N)C(=O)N[C@@H](CCCCN)C(=O)N[C@H](C)C(O)=O,3.18,18:2:11,carboxylic_acid:amine_primary:amine_primary,L-Alanyl-L-lysyl-D-alanine
NCCCC[C@H](NC(=O)[C@@H](N)CCCNC(N)=N)C(=O)N[C@@H](CC(O)=O)C(O)=O,10.49,24:27:0:10,carboxylic_acid:carboxylic_acid:amine_primary:amine_primary,L-Arginyl-L-lysyl-L-aspartic acid
NCCCC[C@H](NC(=O)[C@@H](N)CCCNC(N)=N)C(=O)N[C@@H](CC(O)=O)C(O)=O,7.44,24:27:0:10,carboxylic_acid:carboxylic_acid:amine_primary:amine_primary,L-Arginyl-L-lysyl-L-aspartic acid
NCCCC[C@H](NC(=O)[C@@H](N)CCCNC(N)=N)C(=O)N[C@@H](CC(O)=O)C(O)=O,4.2,24:27:0:10,carboxylic_acid:carboxylic_acid:amine_primary:amine_primary,L-Arginyl-L-lysyl-L-aspartic acid
NCCCC[C@H](NC(=O)[C@@H](N)CCCNC(N)=N)C(=O)N[C@@H](CC(O)=O)C(O)=O,2.77,24:27:0:10,carboxylic_acid:carboxylic_acid:amine_primary:amine_primary,L-Arginyl-L-lysyl-L-aspartic acid
NCCCC[C@H](NC(=O)[C@H](N)CCCNC(N)=N)C(=O)N[C@@H](CC(O)=O)C(O)=O,10.29,24:27:0:10,carboxylic_acid:carboxylic_acid:amine_primary:amine_primary,D-Arginyl-L-lysyl-L-aspartic acid
NCCCC[C@H](NC(=O)[C@H](N)CCCNC(N)=N)C(=O)N[C@@H](CC(O)=O)C(O)=O,7.5,24:27:0:10,carboxylic_acid:carboxylic_acid:amine_primary:amine_primary,D-Arginyl-L-lysyl-L-aspartic acid
NCCCC[C@H](NC(=O)[C@H](N)CCCNC(N)=N)C(=O)N[C@@H](CC(O)=O)C(O)=O,4.2,24:27:0:10,carboxylic_acid:carboxylic_acid:amine_primary:amine_primary,D-Arginyl-L-lysyl-L-aspartic acid
NCCCC[C@H](NC(=O)[C@H](N)CCCNC(N)=N)C(=O)N[C@@H](CC(O)=O)C(O)=O,2.76,24:27:0:10,carboxylic_acid:carboxylic_acid:amine_primary:amine_primary,D-Arginyl-L-lysyl-L-aspartic acid
NCCCC[C@@H](NC(=O)[C@@H](N)CCCNC(N)=N)C(=O)N[C@@H](CC(O)=O)C(O)=O,10.45,24:27:0:10,carboxylic_acid:carboxylic_acid:amine_primary:amine_primary,L-Arginyl-D-lysyl-L-aspartic acid
NCCCC[C@@H](NC(=O)[C@@H](N)CCCNC(N)=N)C(=O)N[C@@H](CC(O)=O)C(O)=O,7.39,24:27:0:10,carboxylic_acid:carboxylic_acid:amine_primary:amine_primary,L-Arginyl-D-lysyl-L-aspartic acid
NCCCC[C@@H](NC(=O)[C@@H](N)CCCNC(N)=N)C(=O)N[C@@H](CC(O)=O)C(O)=O,4.07,24:27:0:10,carboxylic_acid:carboxylic_acid:amine_primary:amine_primary,L-Arginyl-D-lysyl-L-aspartic acid
NCCCC[C@@H](NC(=O)[C@@H](N)CCCNC(N)=N)C(=O)N[C@@H](CC(O)=O)C(O)=O,2.78,24:27:0:10,carboxylic_acid:carboxylic_acid:amine_primary:amine_primary,L-Arginyl-D-lysyl-L-aspartic acid
NCCCC[C@H](NC(=O)[C@@H](N)CCCNC(N)=N)C(=O)N[C@H](CC(O)=O)C(O)=O,10.55,24:27:0:10,carboxylic_acid:carboxylic_acid:amine_primary:amine_primary,L-Arginyl-L-lysyl-D-aspartic acid
NCCCC[C@H](NC(=O)[C@@H](N)CCCNC(N)=N)C(=O)N[C@H](CC(O)=O)C(O)=O,7.42,24:27:0:10,carboxylic_acid:carboxylic_acid:amine_primary:amine_primary,L-Arginyl-L-lysyl-D-aspartic acid
NCCCC[C@H](NC(=O)[C@@H](N)CCCNC(N)=N)C(=O)N[C@H](CC(O)=O)C(O)=O,4.12,24:27:0:10,carboxylic_acid:carboxylic_acid:amine_primary:amine_primary,L-Arginyl-L-lysyl-D-aspartic acid
NCCCC[C@H](NC(=O)[C@@H](N)CCCNC(N)=N)C(=O)N[C@H](CC(O)=O)C(O)=O,2.71,24:27:0:10,carboxylic_acid:carboxylic_acid:amine_primary:amine_primary,L-Arginyl-L-lysyl-D-aspartic acid
NCCCC[C@H](N)C(=O)N[C@@H](CCCCN)C(=O)N[C@@H](CCCCN)C(O)=O,11.21,26:0:6:15:24,carboxylic_acid:amine_primary:amine_primary:amine_primary:amine_primary,L-Lysyl-L-lysyl-L-lysine
NCCCC[C@H](N)C(=O)N[C@@H](CCCCN)C(=O)N[C@@H](CCCCN)C(O)=O,10.43,26:0:6:15:24,carboxylic_acid:amine_primary:amine_primary:amine_primary:amine_primary,L-Lysyl-L-lysyl-L-lysine
NCCCC[C@H](N)C(=O)N[C@@H](CCCCN)C(=O)N[C@@H](CCCCN)C(O)=O,9.69,26:0:6:15:24,carboxylic_acid:amine_primary:amine_primary:amine_primary:amine_primary,L-Lysyl-L-lysyl-L-lysine
NCCCC[C@H](N)C(=O)N[C@@H](CCCCN)C(=O)N[C@@H](CCCCN)C(O)=O,7.23,26:0:6:15:24,carboxylic_acid:amine_primary:amine_primary:amine_primary:amine_primary,L-Lysyl-L-lysyl-L-lysine
NCCCC[C@H](N)C(=O)N[C@@H](CCCCN)C(=O)N[C@@H](CCCCN)C(O)=O,2.97,26:0:6:15:24,carboxylic_acid:amine_primary:amine_primary:amine_primary:amine_primary,L-Lysyl-L-lysyl-L-lysine
NCCCC[C@H](N)C(=O)N[C@H](CCCCN)C(=O)N[C@@H](CCCCN)C(O)=O,11.31,26:0:6:15:24,carboxylic_acid:amine_primary:amine_primary:amine_primary:amine_primary,L-Lysyl-D-lysyl-L-lysine
NCCCC[C@H](N)C(=O)N[C@H](CCCCN)C(=O)N[C@@H](CCCCN)C(O)=O,10.43,26:0:6:15:24,carboxylic_acid:amine_primary:amine_primary:amine_primary:amine_primary,L-Lysyl-D-lysyl-L-lysine
NCCCC[C@H](N)C(=O)N[C@H](CCCCN)C(=O)N[C@@H](CCCCN)C(O)=O,9.68,26:0:6:15:24,carboxylic_acid:amine_primary:amine_primary:amine_primary:amine_primary,L-Lysyl-D-lysyl-L-lysine
NCCCC[C@H](N)C(=O)N[C@H](CCCCN)C(=O)N[C@@H](CCCCN)C(O)=O,7.18,26:0:6:15:24,carboxylic_acid:amine_primary:amine_primary:amine_primary:amine_primary,L-Lysyl-D-lysyl-L-lysine
NCCCC[C@H](N)C(=O)N[C@H](CCCCN)C(=O)N[C@@H](CCCCN)C(O)=O,2.8,26:0:6:15:24,carboxylic_acid:amine_primary:amine_primary:amine_primary:amine_primary,L-Lysyl-D-lysyl-L-lysine
NCCCC[C@H](N)C(=O)N[C@H](CCCCN)C(=O)N[C@H](CCCCN)C(O)=O,10.98,26:0:6:15:24,carboxylic_acid:amine_primary:amine_primary:amine_primary:amine_primary,L-Lysyl-D-lysyl-D-lysine
NCCCC[C@H](N)C(=O)N[C@H](CCCCN)C(=O)N[C@H](CCCCN)C(O)=O,10.27,26:0:6:15:24,carboxylic_acid:amine_primary:amine_primary:amine_primary:amine_primary,L-Lysyl-D-lysyl-D-lysine
NCCCC[C@H](N)C(=O)N[C@H](CCCCN)C(=O)N[C@H](CCCCN)C(O)=O,9.49,26:0:6:15:24,carboxylic_acid:amine_primary:amine_primary:amine_primary:amine_primary,L-Lysyl-D-lysyl-D-lysine
NCCCC[C@H](N)C(=O)N[C@H](CCCCN)C(=O)N[C@H](CCCCN)C(O)=O,7.03,26:0:6:15:24,carboxylic_acid:amine_primary:amine_primary:amine_primary:amine_primary,L-Lysyl-D-lysyl-D-lysine
NCCCC[C@H](N)C(=O)N[C@H](CCCCN)C(=O)N[C@H](CCCCN)C(O)=O,2.83,26:0:6:15:24,carboxylic_acid:amine_primary:amine_primary:amine_primary:amine_primary,L-Lysyl-D-lysyl-D-lysine
N[C@@H](CCC(=O)N[C@@H](CS)C(=O)NCC(O)=O)C(O)=O,9.51,15:18:0:6,carboxylic_acid:carboxylic_acid:amine_primary:amine_secondary,L-5-Glutamyl-L-cysteinylglycine (Glutathione)
N[C@@H](CCC(=O)N[C@@H](CS)C(=O)NCC(O)=O)C(O)=O,9.27,15:18:0:6,carboxylic_acid:carboxylic_acid:amine_primary:amine_secondary,L-5-Glutamyl-L-cysteinylglycine (Glutathione)
N[C@@H](CCC(=O)N[C@@H](CS)C(=O)NCC(O)=O)C(O)=O,9.37,15:18:0:6,carboxylic_acid:carboxylic_acid:amine_primary:amine_secondary,L-5-Glutamyl-L-cysteinylglycine (Glutathione)
N[C@@H](CCC(=O)N[C@@H](CS)C(=O)NCC(O)=O)C(O)=O,9.88,15:18:0:6,carboxylic_acid:carboxylic_acid:amine_primary:amine_secondary,L-5-Glutamyl-L-cysteinylglycine (Glutathione)
N[C@@H](CCC(=O)N[C@@H](CS)C(=O)NCC(O)=O)C(O)=O,8.64,15:18:0:6,carboxylic_acid:carboxylic_acid:amine_primary:amine_secondary,L-5-Glutamyl-L-cysteinylglycine (Glutathione)
N[C@@H](CCC(=O)N[C@@H](CS)C(=O)NCC(O)=O)C(O)=O,8.39,15:18:0:6,carboxylic_acid:carboxylic_acid:amine_primary:amine_secondary,L-5-Glutamyl-L-cysteinylglycine (Glutathione)
N[C@@H](CCC(=O)N[C@@H](CS)C(=O)NCC(O)=O)C(O)=O,8.58,15:18:0:6,carboxylic_acid:carboxylic_acid:amine_primary:amine_secondary,L-5-Glutamyl-L-cysteinylglycine (Glutathione)
N[C@@H](CCC(=O)N[C@@H](CS)C(=O)NCC(O)=O)C(O)=O,9.16,15:18:0:6,carboxylic_acid:carboxylic_acid:amine_primary:amine_secondary,L-5-Glutamyl-L-cysteinylglycine (Glutathione)
N[C@@H](CCC(=O)N[C@@H](CS)C(=O)NCC(O)=O)C(O)=O,3.49,15:18:0:6,carboxylic_acid:carboxylic_acid:amine_primary:amine_secondary,L-5-Glutamyl-L-cysteinylglycine (Glutathione)
N[C@@H](CCC(=O)N[C@@H](CS)C(=O)NCC(O)=O)C(O)=O,3.46,15:18:0:6,carboxylic_acid:carboxylic_acid:amine_primary:amine_secondary,L-5-Glutamyl-L-cysteinylglycine (Glutathione)
N[C@@H](CCC(=O)N[C@@H](CS)C(=O)NCC(O)=O)C(O)=O,3.48,15:18:0:6,carboxylic_acid:carboxylic_acid:amine_primary:amine_secondary,L-5-Glutamyl-L-cysteinylglycine (Glutathione)
N[C@@H](CCC(=O)N[C@@H](CS)C(=O)NCC(O)=O)C(O)=O,3.5,15:18:0:6,carboxylic_acid:carboxylic_acid:amine_primary:amine_secondary,L-5-Glutamyl-L-cysteinylglycine (Glutathione)
N[C@@H](CCC(=O)N[C@@H](CS)C(=O)NCC(O)=O)C(O)=O,3.82,15:18:0:6,carboxylic_acid:carboxylic_acid:amine_primary:amine_secondary,L-5-Glutamyl-L-cysteinylglycine (Glutathione)
N[C@@H](CCC(=O)N[C@@H](CS)C(=O)NCC(O)=O)C(O)=O,2.08,15:18:0:6,carboxylic_acid:carboxylic_acid:amine_primary:amine_secondary,L-5-Glutamyl-L-cysteinylglycine (Glutathione)
N[C@@H](CCC(=O)N[C@@H](CS)C(=O)NCC(O)=O)C(O)=O,2.06,15:18:0:6,carboxylic_acid:carboxylic_acid:amine_primary:amine_secondary,L-5-Glutamyl-L-cysteinylglycine (Glutathione)
N[C@@H](CCC(=O)N[C@@H](CS)C(=O)NCC(O)=O)C(O)=O,2.1,15:18:0:6,carboxylic_acid:carboxylic_acid:amine_primary:amine_secondary,L-5-Glutamyl-L-cysteinylglycine (Glutathione)
N[C@@H](CCC(=O)N[C@@H](CS)C(=O)NCC(O)=O)C(O)=O,2.28,15:18:0:6,carboxylic_acid:carboxylic_acid:amine_primary:amine_secondary,L-5-Glutamyl-L-cysteinylglycine (Glutathione)
N[C@@H](CCC(=O)N[C@@H](CS)C(=O)NCC(O)=O)C(O)=O,2.59,15:18:0:6,carboxylic_acid:carboxylic_acid:amine_primary:amine_secondary,L-5-Glutamyl-L-cysteinylglycine (Glutathione)
CSC[C@H](NC(=O)CC[C@H](N)C(O)=O)C(=O)NCC(O)=O,9.08,12,carboxylic_acid,L-5-Glutamyl-(S-methyl-L-cysteinyl)glycine (S-methylglutathione)
OC(=O)[C@H](Cc1c[nH]cn1)NC(=O)CNC(=O)CS,8.65,0:7:10,carboxylic_acid:amine_secondary:amine_secondary,N-(Mercaptoacetyl)glycyl-L-histidine
OC(=O)[C@H](Cc1c[nH]cn1)NC(=O)CNC(=O)CS,7.1,0:7:10,carboxylic_acid:amine_secondary:amine_secondary,N-(Mercaptoacetyl)glycyl-L-histidine
OC(=O)[C@H](Cc1c[nH]cn1)NC(=O)CNC(=O)CS,3.47,0:7:10,carboxylic_acid:amine_secondary:amine_secondary,N-(Mercaptoacetyl)glycyl-L-histidine
NCC(=O)NCC(=O)NCC(=O)NCC(O)=O,7.88,15:0,carboxylic_acid:amine_primary,Glycylglycylglycylglycine (Tetraglycine)
NCC(=O)NCC(=O)NCC(=O)NCC(O)=O,3.2,15:0,carboxylic_acid:amine_primary,Glycylglycylglycylglycine (Tetraglycine)
NCC(=O)NCC(=O)NCC(=O)NCC(O)=O,3.21,15:0,carboxylic_acid:amine_primary,Glycylglycylglycylglycine (Tetraglycine)
C[C@H](N)C(=O)NCC(=O)NCC(=O)NCC(O)=O,7.85,16:2,carboxylic_acid:amine_primary,L-Alanylglycylglycylglycine
C[C@H](N)C(=O)NCC(=O)NCC(=O)NCC(O)=O,3.18,16:2,carboxylic_acid:amine_primary,L-Alanylglycylglycylglycine
C[C@H](N)C(=O)N[C@@H](C)C(=O)N[C@@H](C)C(=O)N[C@@H](C)C(O)=O,7.83,19:2,carboxylic_acid:amine_primary,L-Alanyl-L-alanyl-L-alanyl-L-alanine
C[C@H](N)C(=O)N[C@@H](C)C(=O)N[C@@H](C)C(=O)N[C@@H](C)C(O)=O,3.31,19:2,carboxylic_acid:amine_primary,L-Alanyl-L-alanyl-L-alanyl-L-alanine
C[C@H](N)C(=O)N[C@@H](C)C(=O)N[C@H](C)C(=O)N[C@@H](C)C(O)=O,7.82,19:2,carboxylic_acid:amine_primary,L-Alanyl-L-alanyl-D-alanyl-L-alanine
C[C@H](N)C(=O)N[C@@H](C)C(=O)N[C@H](C)C(=O)N[C@@H](C)C(O)=O,3.13,19:2,carboxylic_acid:amine_primary,L-Alanyl-L-alanyl-D-alanyl-L-alanine
C[C@H](N)C(=O)N[C@H](C)C(=O)N[C@@H](C)C(=O)N[C@@H](C)C(O)=O,7.88,19:2,carboxylic_acid:amine_primary,L-Alanyl-D-alanyl-L-alanyl-L-alanine
C[C@H](N)C(=O)N[C@H](C)C(=O)N[C@@H](C)C(=O)N[C@@H](C)C(O)=O,3.11,19:2,carboxylic_acid:amine_primary,L-Alanyl-D-alanyl-L-alanyl-L-alanine
C[C@@H](N)C(=O)N[C@@H](C)C(=O)N[C@@H](C)C(=O)N[C@@H](C)C(O)=O,7.83,19:2,carboxylic_acid:amine_primary,D-Alanyl-L-alanyl-L-alanyl-L-alanine
C[C@@H](N)C(=O)N[C@@H](C)C(=O)N[C@@H](C)C(=O)N[C@@H](C)C(O)=O,3.31,19:2,carboxylic_acid:amine_primary,D-Alanyl-L-alanyl-L-alanyl-L-alanine
CC(C)(NC(=O)CNC(=O)CN)C(=O)NCC(O)=O,7.98,17:11,carboxylic_acid:amine_primary,Glycylglycyl-2-methylalanylglycine
CC(C)(NC(=O)CNC(=O)CN)C(=O)NCC(O)=O,3.55,17:11,carboxylic_acid:amine_primary,Glycylglycyl-2-methylalanylglycine
CC(C)(N)C(=O)NC(C)(C)C(=O)NC(C)(C)C(=O)NCC(O)=O,8.33,21:3,carboxylic_acid:amine_primary,2-Methylalanyl-2-methylalanyl-2-methylalanylglycine
CC(C)(N)C(=O)NC(C)(C)C(=O)NC(C)(C)C(=O)NCC(O)=O,3.46,21:3,carboxylic_acid:amine_primary,2-Methylalanyl-2-methylalanyl-2-methylalanylglycine
CC(C)(N)C(=O)NC(C)(C)C(=O)NC(C)(C)C(=O)NC(C)(C)C(O)=O,7.78,23:3,carboxylic_acid:amine_primary,2-Methylalanyl-2-methylalanyl-2-methylalanyl-2-methylalanine
CC(C)(N)C(=O)NC(C)(C)C(=O)NC(C)(C)C(=O)NC(C)(C)C(O)=O,3.8,23:3,carboxylic_acid:amine_primary,2-Methylalanyl-2-methylalanyl-2-methylalanyl-2-methylalanine
CN(CC(O)=O)C(=O)CNC(=O)CNC(=O)CN,7.92,4:17,carboxylic_acid:amine_primary,Glycylglycylglycylsarcosine
CN(CC(O)=O)C(=O)CNC(=O)CNC(=O)CN,3.04,4:17,carboxylic_acid:amine_primary,Glycylglycylglycylsarcosine
CN(CC(=O)NCC(O)=O)C(=O)CNC(=O)CN,7.97,8:17,carboxylic_acid:amine_primary,Glycylglycylsarcosylglycine
CN(CC(=O)NCC(O)=O)C(=O)CNC(=O)CN,3.34,8:17,carboxylic_acid:amine_primary,Glycylglycylsarcosylglycine
CN(CC(=O)NCC(=O)NCC(O)=O)C(=O)CN,8.28,12:17,carboxylic_acid:amine_primary,Glycylsarcosylglycylglycine
CN(CC(=O)NCC(=O)NCC(O)=O)C(=O)CN,3.35,12:17,carboxylic_acid:amine_primary,Glycylsarcosylglycylglycine
CNCC(=O)NCC(=O)NCC(=O)NCC(O)=O,8.39,16:1,carboxylic_acid:amine_secondary,Sarcosylglycylglycylglycine
CNCC(=O)NCC(=O)NCC(=O)NCC(O)=O,3.34,16:1,carboxylic_acid:amine_secondary,Sarcosylglycylglycylglycine
NCC(=O)NCC(=O)NCC(=O)N1CCC[C@H]1C(O)=O,8.04,18:0,carboxylic_acid:amine_primary,Glycylglycylglycyl-L-proline
NCC(=O)NCC(=O)NCC(=O)N1CCC[C@H]1C(O)=O,2.91,18:0,carboxylic_acid:amine_primary,Glycylglycylglycyl-L-proline
NCC(=O)NCC(=O)N1CCC[C@H]1C(=O)NCC(O)=O,8.06,18:0,carboxylic_acid:amine_primary,Glycylglycyl-L-prolylglycine
NCC(=O)NCC(=O)N1CCC[C@H]1C(=O)NCC(O)=O,3.17,18:0,carboxylic_acid:amine_primary,Glycylglycyl-L-prolylglycine
NCC(=O)N1CCC[C@H]1C(=O)NCC(=O)NCC(O)=O,8.25,18:0,carboxylic_acid:amine_primary,Glycyl-L-prolylglycylglycine
NCC(=O)N1CCC[C@H]1C(=O)NCC(=O)NCC(O)=O,3.11,18:0,carboxylic_acid:amine_primary,Glycyl-L-prolylglycylglycine
OC(=O)CNC(=O)CNC(=O)CNC(=O)[C@@H]1CCCN1,8.67,0:4,carboxylic_acid:amine_secondary,L-Prolylglycylglycylglycine
OC(=O)CNC(=O)CNC(=O)CNC(=O)[C@@H]1CCCN1,3.27,0:4,carboxylic_acid:amine_secondary,L-Prolylglycylglycylglycine
C[C@H](N)C(=O)N[C@@H](C)C(=O)N[C@@H](C)C(=O)N1CCC[C@H]1C(O)=O,8.2,21:2,carboxylic_acid:amine_primary,L-Alanyl-L-alanyl-L-alanyl-L-proline
C[C@H](N)C(=O)N[C@@H](C)C(=O)N[C@@H](C)C(=O)N1CCC[C@H]1C(O)=O,3.16,21:2,carboxylic_acid:amine_primary,L-Alanyl-L-alanyl-L-alanyl-L-proline
C[C@H](N)C(=O)N[C@@H](C)C(=O)N1CCC[C@H]1C(=O)N[C@@H](C)C(O)=O,8.2,21:2,carboxylic_acid:amine_primary,L-Alanyl-L-alanyl-L-prolyl-L-alanine
C[C@H](N)C(=O)N[C@@H](C)C(=O)N1CCC[C@H]1C(=O)N[C@@H](C)C(O)=O,3.34,21:2,carboxylic_acid:amine_primary,L-Alanyl-L-alanyl-L-prolyl-L-alanine
C[C@H](N)C(=O)N1CCC[C@H]1C(=O)N[C@@H](C)C(=O)N[C@@H](C)C(O)=O,8.28,21:2,carboxylic_acid:amine_primary,L-Alanyl-L-prolyl-L-alanyl-L-alanine
C[C@H](N)C(=O)N1CCC[C@H]1C(=O)N[C@@H](C)C(=O)N[C@@H](C)C(O)=O,3.31,21:2,carboxylic_acid:amine_primary,L-Alanyl-L-prolyl-L-alanyl-L-alanine
C[C@H](NC(=O)[C@H](C)NC(=O)[C@H](C)NC(=O)[C@@H]1CCCN1)C(O)=O,8.37,21:2,carboxylic_acid:amine_secondary,L-Prolyl-L-alanyl-L-alanyl-L-alanine
C[C@H](NC(=O)[C@H](C)NC(=O)[C@H](C)NC(=O)[C@@H]1CCCN1)C(O)=O,3.1,21:2,carboxylic_acid:amine_secondary,L-Prolyl-L-alanyl-L-alanyl-L-alanine
NCC(=O)N1CCC[C@H]1C(=O)NCC(=O)N[C@@H](Cc2ccccc2)C(O)=O,8.33,7,tertiary_amine,Glycyl-L-prolylglycyl-L-phenylalanine
NCC(=O)N1CCC[C@H]1C(=O)N[C@@H](Cc2ccccc2)C(=O)NCC(O)=O,8.29,7,tertiary_amine,Glycyl-L-prolyl-L-phenylalanylglycine
NCC(=O)N1CCC[C@H]1C(=O)N[C@H](Cc2ccccc2)C(=O)NCC(O)=O,8.64,7,tertiary_amine,Glycyl-L-prolyl-D-phenylalanylglycine
N[C@@H](Cc1ccccc1)C(=O)N2CCC[C@H]2C(=O)NCC(=O)NCC(O)=O,7.75,25:0,carboxylic_acid:amine_primary,L-Phenylalanyl-L-prolylglycylglycine
N[C@@H](Cc1ccccc1)C(=O)N2CCC[C@H]2C(=O)NCC(=O)NCC(O)=O,3.11,25:0,carboxylic_acid:amine_primary,L-Phenylalanyl-L-prolylglycylglycine
C[C@H](N)C(=O)N[C@@H](C)C(=O)N[C@@H](C)C(=O)N[C@@H](CC(O)=O)C(O)=O,8.05,19:22:2,carboxylic_acid:carboxylic_acid:amine_primary,L-Alanyl-L-alanyl-L-alanyl-L-aspartic acid
C[C@H](N)C(=O)N[C@@H](C)C(=O)N[C@@H](C)C(=O)N[C@@H](CC(O)=O)C(O)=O,4.01,19:22:2,carboxylic_acid:carboxylic_acid:amine_primary,L-Alanyl-L-alanyl-L-alanyl-L-aspartic acid
C[C@H](N)C(=O)N[C@@H](C)C(=O)N[C@@H](C)C(=O)N[C@@H](CC(O)=O)C(O)=O,3.15,19:22:2,carboxylic_acid:carboxylic_acid:amine_primary,L-Alanyl-L-alanyl-L-alanyl-L-aspartic acid
C[C@H](N)C(=O)N[C@@H](C)C(=O)N[C@@H](CC(O)=O)C(=O)N[C@@H](C)C(O)=O,8.29,14:22:2,carboxylic_acid:carboxylic_acid:amine_primary,L-Alanyl-L-alanyl-L-aspartyl-L-alanine
C[C@H](N)C(=O)N[C@@H](C)C(=O)N[C@@H](CC(O)=O)C(=O)N[C@@H](C)C(O)=O,4.22,14:22:2,carboxylic_acid:carboxylic_acid:amine_primary,L-Alanyl-L-alanyl-L-aspartyl-L-alanine
C[C@H](N)C(=O)N[C@@H](C)C(=O)N[C@@H](CC(O)=O)C(=O)N[C@@H](C)C(O)=O,3.29,14:22:2,carboxylic_acid:carboxylic_acid:amine_primary,L-Alanyl-L-alanyl-L-aspartyl-L-alanine
C[C@H](N)C(=O)N[C@@H](CC(O)=O)C(=O)N[C@@H](C)C(=O)N[C@@H](C)C(O)=O,7.96,9:22:2,carboxylic_acid:carboxylic_acid:amine_primary,L-Alanyl-L-aspartyl-L-alanyl-L-alanine
C[C@H](N)C(=O)N[C@@H](CC(O)=O)C(=O)N[C@@H](C)C(=O)N[C@@H](C)C(O)=O,3.85,9:22:2,carboxylic_acid:carboxylic_acid:amine_primary,L-Alanyl-L-aspartyl-L-alanyl-L-alanine
C[C@H](N)C(=O)N[C@@H](CC(O)=O)C(=O)N[C@@H](C)C(=O)N[C@@H](C)C(O)=O,3.22,9:22:2,carboxylic_acid:carboxylic_acid:amine_primary,L-Alanyl-L-aspartyl-L-alanyl-L-alanine
C[C@H](NC(=O)[C@H](C)NC(=O)[C@H](C)NC(=O)[C@@H](N)CC(O)=O)C(O)=O,7.69,19:22:16,carboxylic_acid:carboxylic_acid:amine_primary,L-Aspartyl-L-alanyl-L-alanyl-L-alanine