SMILES,pKa,Dissociable_Atoms,Functional_Group,Name,Dissociable_Atoms_Ordered,Functional_Group_Ordered,Dissociation_Order
CC(CC(C)(C)NCCNC(C)(C)CC(C)=NO)=NO,6.35,6:9,amine_secondary:amine_secondary,"Ethylenebis[imino-4-(4-methylpentan-2-one oxime)] (4,4,9,9-Tetramethyl-5,8-diazadodecane-2,11-dione dioxime)",6:9,amine_secondary:amine_secondary,6(amine_secondary) > 9(amine_secondary)
CC(CC(C)(C)NCCNC(C)(C)CC(C)=NO)=NO,5.89,6:9,amine_secondary:amine_secondary,"Ethylenebis[imino-4-(4-methylpentan-2-one oxime)] (4,4,9,9-Tetramethyl-5,8-diazadodecane-2,11-dione dioxime)",6:9,amine_secondary:amine_secondary,6(amine_secondary) > 9(amine_secondary)
NCCCCNCCCN,10.85,0:5:9,amine_primary:amine_secondary:amine_primary,"1,5,10-Triazadecane (3,4-tri)(Spermidine)",0:9:5,amine_primary:amine_primary:amine_secondary,0(amine_primary) > 9(amine_primary) > 5(amine_secondary)
NCCCCNCCCN,9.83,0:5:9,amine_primary:amine_secondary:amine_primary,"1,5,10-Triazadecane (3,4-tri)(Spermidine)",0:9:5,amine_primary:amine_primary:amine_secondary,0(amine_primary) > 9(amine_primary) > 5(amine_secondary)
NCCCCNCCCN,8.4,0:5:9,amine_primary:amine_secondary:amine_primary,"1,5,10-Triazadecane (3,4-tri)(Spermidine)",0:9:5,amine_primary:amine_primary:amine_secondary,0(amine_primary) > 9(amine_primary) > 5(amine_secondary)
CNCCCNCCCN,10.68,1:5:9,amine_secondary:amine_secondary:amine_primary,"1,5,9-Triazadecane",9:1:5,amine_primary:amine_secondary:amine_secondary,9(amine_primary) > 1(amine_secondary) > 5(amine_secondary)
CNCCCNCCCN,9.69,1:5:9,amine_secondary:amine_secondary:amine_primary,"1,5,9-Triazadecane",9:1:5,amine_primary:amine_secondary:amine_secondary,9(amine_primary) > 1(amine_secondary) > 5(amine_secondary)
CNCCCNCCCN,7.03,1:5:9,amine_secondary:amine_secondary:amine_primary,"1,5,9-Triazadecane",9:1:5,amine_primary:amine_secondary:amine_secondary,9(amine_primary) > 1(amine_secondary) > 5(amine_secondary)
CCNCCNCCNCC,10.51,2:5:8,amine_secondary:amine_secondary:amine_secondary,"3,6,9-Triazaundecane (N,N''-Diethyldiethylenetriamine)",2:5:8,amine_secondary:amine_secondary:amine_secondary,2(amine_secondary) > 5(amine_secondary) > 8(amine_secondary)
CCNCCNCCNCC,9.85,2:5:8,amine_secondary:amine_secondary:amine_secondary,"3,6,9-Triazaundecane (N,N''-Diethyldiethylenetriamine)",2:5:8,amine_secondary:amine_secondary:amine_secondary,2(amine_secondary) > 5(amine_secondary) > 8(amine_secondary)
CCNCCNCCNCC,4.31,2:5:8,amine_secondary:amine_secondary:amine_secondary,"3,6,9-Triazaundecane (N,N''-Diethyldiethylenetriamine)",2:5:8,amine_secondary:amine_secondary:amine_secondary,2(amine_secondary) > 5(amine_secondary) > 8(amine_secondary)
NCCNCCCNCCN,10.08,0:3:7:10,amine_primary:amine_secondary:amine_secondary:amine_primary,"1,4,8,11-Tetraazaundecane (2,3,2-tet)",0:10:3:7,amine_primary:amine_primary:amine_secondary:amine_secondary,0(amine_primary) > 10(amine_primary) > 3(amine_secondary) > 7(amine_secondary)
NCCNCCCNCCN,10.25,0:3:7:10,amine_primary:amine_secondary:amine_secondary:amine_primary,"1,4,8,11-Tetraazaundecane (2,3,2-tet)",0:10:3:7,amine_primary:amine_primary:amine_secondary:amine_secondary,0(amine_primary) > 10(amine_primary) > 3(amine_secondary) > 7(amine_secondary)
NCCNCCCNCCN,10.28,0:3:7:10,amine_primary:amine_secondary:amine_secondary:amine_primary,"1,4,8,11-Tetraazaundecane (2,3,2-tet)",0:10:3:7,amine_primary:amine_primary:amine_secondary:amine_secondary,0(amine_primary) > 10(amine_primary) > 3(amine_secondary) > 7(amine_secondary)
NCCNCCCNCCN,9.26,0:3:7:10,amine_primary:amine_secondary:amine_secondary:amine_primary,"1,4,8,11-Tetraazaundecane (2,3,2-tet)",0:10:3:7,amine_primary:amine_primary:amine_secondary:amine_secondary,0(amine_primary) > 10(amine_primary) > 3(amine_secondary) > 7(amine_secondary)
NCCNCCCNCCN,9.5,0:3:7:10,amine_primary:amine_secondary:amine_secondary:amine_primary,"1,4,8,11-Tetraazaundecane (2,3,2-tet)",0:10:3:7,amine_primary:amine_primary:amine_secondary:amine_secondary,0(amine_primary) > 10(amine_primary) > 3(amine_secondary) > 7(amine_secondary)
NCCNCCCNCCN,9.58,0:3:7:10,amine_primary:amine_secondary:amine_secondary:amine_primary,"1,4,8,11-Tetraazaundecane (2,3,2-tet)",0:10:3:7,amine_primary:amine_primary:amine_secondary:amine_secondary,0(amine_primary) > 10(amine_primary) > 3(amine_secondary) > 7(amine_secondary)
NCCNCCCNCCN,6.88,0:3:7:10,amine_primary:amine_secondary:amine_secondary:amine_primary,"1,4,8,11-Tetraazaundecane (2,3,2-tet)",0:10:3:7,amine_primary:amine_primary:amine_secondary:amine_secondary,0(amine_primary) > 10(amine_primary) > 3(amine_secondary) > 7(amine_secondary)
NCCNCCCNCCN,7.28,0:3:7:10,amine_primary:amine_secondary:amine_secondary:amine_primary,"1,4,8,11-Tetraazaundecane (2,3,2-tet)",0:10:3:7,amine_primary:amine_primary:amine_secondary:amine_secondary,0(amine_primary) > 10(amine_primary) > 3(amine_secondary) > 7(amine_secondary)
NCCNCCCNCCN,7.39,0:3:7:10,amine_primary:amine_secondary:amine_secondary:amine_primary,"1,4,8,11-Tetraazaundecane (2,3,2-tet)",0:10:3:7,amine_primary:amine_primary:amine_secondary:amine_secondary,0(amine_primary) > 10(amine_primary) > 3(amine_secondary) > 7(amine_secondary)
NCCNCCCNCCN,5.45,0:3:7:10,amine_primary:amine_secondary:amine_secondary:amine_primary,"1,4,8,11-Tetraazaundecane (2,3,2-tet)",0:10:3:7,amine_primary:amine_primary:amine_secondary:amine_secondary,0(amine_primary) > 10(amine_primary) > 3(amine_secondary) > 7(amine_secondary)
NCCNCCCNCCN,6.02,0:3:7:10,amine_primary:amine_secondary:amine_secondary:amine_primary,"1,4,8,11-Tetraazaundecane (2,3,2-tet)",0:10:3:7,amine_primary:amine_primary:amine_secondary:amine_secondary,0(amine_primary) > 10(amine_primary) > 3(amine_secondary) > 7(amine_secondary)
NCCNCCCNCCN,6.08,0:3:7:10,amine_primary:amine_secondary:amine_secondary:amine_primary,"1,4,8,11-Tetraazaundecane (2,3,2-tet)",0:10:3:7,amine_primary:amine_primary:amine_secondary:amine_secondary,0(amine_primary) > 10(amine_primary) > 3(amine_secondary) > 7(amine_secondary)
CC(N)CC(C)(C)NCCNC(C)(C)CC(C)N,11.09,2:7:10:17,amine_primary:amine_secondary:amine_secondary:amine_primary,"2,4,4,9,9,11-Hexamethyl-1,5,8,12-tetraazadodecane (4,4,9,9-Tetramethyl-5,8-diazadodecane-2,11-diamine)",2:17:7:10,amine_primary:amine_primary:amine_secondary:amine_secondary,2(amine_primary) > 17(amine_primary) > 7(amine_secondary) > 10(amine_secondary)
CC(N)CC(C)(C)NCCNC(C)(C)CC(C)N,10.06,2:7:10:17,amine_primary:amine_secondary:amine_secondary:amine_primary,"2,4,4,9,9,11-Hexamethyl-1,5,8,12-tetraazadodecane (4,4,9,9-Tetramethyl-5,8-diazadodecane-2,11-diamine)",2:17:7:10,amine_primary:amine_primary:amine_secondary:amine_secondary,2(amine_primary) > 17(amine_primary) > 7(amine_secondary) > 10(amine_secondary)
CC(N)CC(C)(C)NCCNC(C)(C)CC(C)N,7.61,2:7:10:17,amine_primary:amine_secondary:amine_secondary:amine_primary,"2,4,4,9,9,11-Hexamethyl-1,5,8,12-tetraazadodecane (4,4,9,9-Tetramethyl-5,8-diazadodecane-2,11-diamine)",2:17:7:10,amine_primary:amine_primary:amine_secondary:amine_secondary,2(amine_primary) > 17(amine_primary) > 7(amine_secondary) > 10(amine_secondary)
CC(N)CC(C)(C)NCCNC(C)(C)CC(C)N,4.9,2:7:10:17,amine_primary:amine_secondary:amine_secondary:amine_primary,"2,4,4,9,9,11-Hexamethyl-1,5,8,12-tetraazadodecane (4,4,9,9-Tetramethyl-5,8-diazadodecane-2,11-diamine)",2:17:7:10,amine_primary:amine_primary:amine_secondary:amine_secondary,2(amine_primary) > 17(amine_primary) > 7(amine_secondary) > 10(amine_secondary)
NCCCNCCCCNCCCN,10.82,0:4:9:13,amine_primary:amine_secondary:amine_secondary:amine_primary,"1,5,10,14-Tetraazatetradecane (3,4,3-tet)(Spermine)",0:13:4:9,amine_primary:amine_primary:amine_secondary:amine_secondary,0(amine_primary) > 13(amine_primary) > 4(amine_secondary) > 9(amine_secondary)
NCCCNCCCCNCCCN,9.99,0:4:9:13,amine_primary:amine_secondary:amine_secondary:amine_primary,"1,5,10,14-Tetraazatetradecane (3,4,3-tet)(Spermine)",0:13:4:9,amine_primary:amine_primary:amine_secondary:amine_secondary,0(amine_primary) > 13(amine_primary) > 4(amine_secondary) > 9(amine_secondary)
NCCCNCCCCNCCCN,8.85,0:4:9:13,amine_primary:amine_secondary:amine_secondary:amine_primary,"1,5,10,14-Tetraazatetradecane (3,4,3-tet)(Spermine)",0:13:4:9,amine_primary:amine_primary:amine_secondary:amine_secondary,0(amine_primary) > 13(amine_primary) > 4(amine_secondary) > 9(amine_secondary)
NCCCNCCCCNCCCN,7.91,0:4:9:13,amine_primary:amine_secondary:amine_secondary:amine_primary,"1,5,10,14-Tetraazatetradecane (3,4,3-tet)(Spermine)",0:13:4:9,amine_primary:amine_primary:amine_secondary:amine_secondary,0(amine_primary) > 13(amine_primary) > 4(amine_secondary) > 9(amine_secondary)
NCCCCNCCCNCCCN,11.03,0:5:9:13,amine_primary:amine_secondary:amine_secondary:amine_primary,"1,5,9,14-Tetraazatetradecane (3,3,4-tet)(Thermospermine)",0:13:5:9,amine_primary:amine_primary:amine_secondary:amine_secondary,0(amine_primary) > 13(amine_primary) > 5(amine_secondary) > 9(amine_secondary)
NCCCCNCCCNCCCN,10.38,0:5:9:13,amine_primary:amine_secondary:amine_secondary:amine_primary,"1,5,9,14-Tetraazatetradecane (3,3,4-tet)(Thermospermine)",0:13:5:9,amine_primary:amine_primary:amine_secondary:amine_secondary,0(amine_primary) > 13(amine_primary) > 5(amine_secondary) > 9(amine_secondary)
NCCCCNCCCNCCCN,9.12,0:5:9:13,amine_primary:amine_secondary:amine_secondary:amine_primary,"1,5,9,14-Tetraazatetradecane (3,3,4-tet)(Thermospermine)",0:13:5:9,amine_primary:amine_primary:amine_secondary:amine_secondary,0(amine_primary) > 13(amine_primary) > 5(amine_secondary) > 9(amine_secondary)
NCCCCNCCCNCCCN,7.47,0:5:9:13,amine_primary:amine_secondary:amine_secondary:amine_primary,"1,5,9,14-Tetraazatetradecane (3,3,4-tet)(Thermospermine)",0:13:5:9,amine_primary:amine_primary:amine_secondary:amine_secondary,0(amine_primary) > 13(amine_primary) > 5(amine_secondary) > 9(amine_secondary)
CNCCNCCNCCNC,10.75,1:4:7:10,amine_secondary:amine_secondary:amine_secondary:amine_secondary,"2,5,8,11-Tetraazadodecane",1:4:7:10,amine_secondary:amine_secondary:amine_secondary:amine_secondary,1(amine_secondary) > 4(amine_secondary) > 7(amine_secondary) > 10(amine_secondary)
CNCCNCCNCCNC,9.68,1:4:7:10,amine_secondary:amine_secondary:amine_secondary:amine_secondary,"2,5,8,11-Tetraazadodecane",1:4:7:10,amine_secondary:amine_secondary:amine_secondary:amine_secondary,1(amine_secondary) > 4(amine_secondary) > 7(amine_secondary) > 10(amine_secondary)
CNCCNCCNCCNC,7.59,1:4:7:10,amine_secondary:amine_secondary:amine_secondary:amine_secondary,"2,5,8,11-Tetraazadodecane",1:4:7:10,amine_secondary:amine_secondary:amine_secondary:amine_secondary,1(amine_secondary) > 4(amine_secondary) > 7(amine_secondary) > 10(amine_secondary)
CNCCNCCNCCNC,4.08,1:4:7:10,amine_secondary:amine_secondary:amine_secondary:amine_secondary,"2,5,8,11-Tetraazadodecane",1:4:7:10,amine_secondary:amine_secondary:amine_secondary:amine_secondary,1(amine_secondary) > 4(amine_secondary) > 7(amine_secondary) > 10(amine_secondary)
CNCCCNCCCNCCNC,10.3,1:5:9:12,amine_secondary:amine_secondary:amine_secondary:amine_secondary,"2,5,9,13-Tetraazatetradecane",1:5:9:12,amine_secondary:amine_secondary:amine_secondary:amine_secondary,1(amine_secondary) > 5(amine_secondary) > 9(amine_secondary) > 12(amine_secondary)
CNCCCNCCCNCCNC,9.57,1:5:9:12,amine_secondary:amine_secondary:amine_secondary:amine_secondary,"2,5,9,13-Tetraazatetradecane",1:5:9:12,amine_secondary:amine_secondary:amine_secondary:amine_secondary,1(amine_secondary) > 5(amine_secondary) > 9(amine_secondary) > 12(amine_secondary)
CNCCCNCCCNCCNC,7.18,1:5:9:12,amine_secondary:amine_secondary:amine_secondary:amine_secondary,"2,5,9,13-Tetraazatetradecane",1:5:9:12,amine_secondary:amine_secondary:amine_secondary:amine_secondary,1(amine_secondary) > 5(amine_secondary) > 9(amine_secondary) > 12(amine_secondary)
CNCCCNCCCNCCNC,5.66,1:5:9:12,amine_secondary:amine_secondary:amine_secondary:amine_secondary,"2,5,9,13-Tetraazatetradecane",1:5:9:12,amine_secondary:amine_secondary:amine_secondary:amine_secondary,1(amine_secondary) > 5(amine_secondary) > 9(amine_secondary) > 12(amine_secondary)
CNCCCNCCNCCCNC,10.84,1:5:8:12,amine_secondary:amine_secondary:amine_secondary:amine_secondary,"2,6,9,13-Tetraazatetradecane",1:5:8:12,amine_secondary:amine_secondary:amine_secondary:amine_secondary,1(amine_secondary) > 5(amine_secondary) > 8(amine_secondary) > 12(amine_secondary)
CNCCCNCCNCCCNC,10.12,1:5:8:12,amine_secondary:amine_secondary:amine_secondary:amine_secondary,"2,6,9,13-Tetraazatetradecane",1:5:8:12,amine_secondary:amine_secondary:amine_secondary:amine_secondary,1(amine_secondary) > 5(amine_secondary) > 8(amine_secondary) > 12(amine_secondary)
CNCCCNCCNCCCNC,8.44,1:5:8:12,amine_secondary:amine_secondary:amine_secondary:amine_secondary,"2,6,9,13-Tetraazatetradecane",1:5:8:12,amine_secondary:amine_secondary:amine_secondary:amine_secondary,1(amine_secondary) > 5(amine_secondary) > 8(amine_secondary) > 12(amine_secondary)
CNCCCNCCNCCCNC,5.69,1:5:8:12,amine_secondary:amine_secondary:amine_secondary:amine_secondary,"2,6,9,13-Tetraazatetradecane",1:5:8:12,amine_secondary:amine_secondary:amine_secondary:amine_secondary,1(amine_secondary) > 5(amine_secondary) > 8(amine_secondary) > 12(amine_secondary)
CNCCCNCCCNCCCNC,10.95,1:5:9:13,amine_secondary:amine_secondary:amine_secondary:amine_secondary,"2,6,10,14-Tetraazapentadecane",1:5:9:13,amine_secondary:amine_secondary:amine_secondary:amine_secondary,1(amine_secondary) > 5(amine_secondary) > 9(amine_secondary) > 13(amine_secondary)
CNCCCNCCCNCCCNC,10.23,1:5:9:13,amine_secondary:amine_secondary:amine_secondary:amine_secondary,"2,6,10,14-Tetraazapentadecane",1:5:9:13,amine_secondary:amine_secondary:amine_secondary:amine_secondary,1(amine_secondary) > 5(amine_secondary) > 9(amine_secondary) > 13(amine_secondary)
CNCCCNCCCNCCCNC,8.89,1:5:9:13,amine_secondary:amine_secondary:amine_secondary:amine_secondary,"2,6,10,14-Tetraazapentadecane",1:5:9:13,amine_secondary:amine_secondary:amine_secondary:amine_secondary,1(amine_secondary) > 5(amine_secondary) > 9(amine_secondary) > 13(amine_secondary)
CNCCCNCCCNCCCNC,7.43,1:5:9:13,amine_secondary:amine_secondary:amine_secondary:amine_secondary,"2,6,10,14-Tetraazapentadecane",1:5:9:13,amine_secondary:amine_secondary:amine_secondary:amine_secondary,1(amine_secondary) > 5(amine_secondary) > 9(amine_secondary) > 13(amine_secondary)
NCCNCC(F)(F)CNCCN,9.86,0:3:9:12,amine_primary:amine_secondary:amine_secondary:amine_primary,"6,6-Difluoro-1,4,8,11-tetraazaundecane",0:12:3:9,amine_primary:amine_primary:amine_secondary:amine_secondary,0(amine_primary) > 12(amine_primary) > 3(amine_secondary) > 9(amine_secondary)
NCCNCC(F)(F)CNCCN,9.11,0:3:9:12,amine_primary:amine_secondary:amine_secondary:amine_primary,"6,6-Difluoro-1,4,8,11-tetraazaundecane",0:12:3:9,amine_primary:amine_primary:amine_secondary:amine_secondary,0(amine_primary) > 12(amine_primary) > 3(amine_secondary) > 9(amine_secondary)
NCCNCC(F)(F)CNCCN,4.58,0:3:9:12,amine_primary:amine_secondary:amine_secondary:amine_primary,"6,6-Difluoro-1,4,8,11-tetraazaundecane",0:12:3:9,amine_primary:amine_primary:amine_secondary:amine_secondary,0(amine_primary) > 12(amine_primary) > 3(amine_secondary) > 9(amine_secondary)
NCCNCC(F)(F)CNCCN,2.42,0:3:9:12,amine_primary:amine_secondary:amine_secondary:amine_primary,"6,6-Difluoro-1,4,8,11-tetraazaundecane",0:12:3:9,amine_primary:amine_primary:amine_secondary:amine_secondary,0(amine_primary) > 12(amine_primary) > 3(amine_secondary) > 9(amine_secondary)
NCCNCCOCCNCCN,9.81,0:3:9:12,amine_primary:amine_secondary:amine_secondary:amine_primary,"7-Oxa-1,4,10,13-tetraazatridecane",0:12:3:9,amine_primary:amine_primary:amine_secondary:amine_secondary,0(amine_primary) > 12(amine_primary) > 3(amine_secondary) > 9(amine_secondary)
NCCNCCOCCNCCN,9.24,0:3:9:12,amine_primary:amine_secondary:amine_secondary:amine_primary,"7-Oxa-1,4,10,13-tetraazatridecane",0:12:3:9,amine_primary:amine_primary:amine_secondary:amine_secondary,0(amine_primary) > 12(amine_primary) > 3(amine_secondary) > 9(amine_secondary)
NCCNCCOCCNCCN,6.89,0:3:9:12,amine_primary:amine_secondary:amine_secondary:amine_primary,"7-Oxa-1,4,10,13-tetraazatridecane",0:12:3:9,amine_primary:amine_primary:amine_secondary:amine_secondary,0(amine_primary) > 12(amine_primary) > 3(amine_secondary) > 9(amine_secondary)
NCCNCCOCCNCCN,5.98,0:3:9:12,amine_primary:amine_secondary:amine_secondary:amine_primary,"7-Oxa-1,4,10,13-tetraazatridecane",0:12:3:9,amine_primary:amine_primary:amine_secondary:amine_secondary,0(amine_primary) > 12(amine_primary) > 3(amine_secondary) > 9(amine_secondary)
NCCNCCSCCNCCN,9.78,0:3:9:12,amine_primary:amine_secondary:amine_secondary:amine_primary,"7-Thia-1,4,10,13-tetraazatridecane",0:12:3:9,amine_primary:amine_primary:amine_secondary:amine_secondary,0(amine_primary) > 12(amine_primary) > 3(amine_secondary) > 9(amine_secondary)
NCCNCCSCCNCCN,9.1,0:3:9:12,amine_primary:amine_secondary:amine_secondary:amine_primary,"7-Thia-1,4,10,13-tetraazatridecane",0:12:3:9,amine_primary:amine_primary:amine_secondary:amine_secondary,0(amine_primary) > 12(amine_primary) > 3(amine_secondary) > 9(amine_secondary)
NCCNCCSCCNCCN,6.51,0:3:9:12,amine_primary:amine_secondary:amine_secondary:amine_primary,"7-Thia-1,4,10,13-tetraazatridecane",0:12:3:9,amine_primary:amine_primary:amine_secondary:amine_secondary,0(amine_primary) > 12(amine_primary) > 3(amine_secondary) > 9(amine_secondary)
NCCNCCSCCNCCN,5.64,0:3:9:12,amine_primary:amine_secondary:amine_secondary:amine_primary,"7-Thia-1,4,10,13-tetraazatridecane",0:12:3:9,amine_primary:amine_primary:amine_secondary:amine_secondary,0(amine_primary) > 12(amine_primary) > 3(amine_secondary) > 9(amine_secondary)
C1CNCCN1,9.74,2:5,amine_secondary:amine_secondary,"1,4-Diazacyclohexane (Perhydro-1,4-diazine)(Piperazine)",2:5,amine_secondary:amine_secondary,2(amine_secondary) > 5(amine_secondary)
C1CNCCN1,9.86,2:5,amine_secondary:amine_secondary,"1,4-Diazacyclohexane (Perhydro-1,4-diazine)(Piperazine)",2:5,amine_secondary:amine_secondary,2(amine_secondary) > 5(amine_secondary)
C1CNCCN1,10.01,2:5,amine_secondary:amine_secondary,"1,4-Diazacyclohexane (Perhydro-1,4-diazine)(Piperazine)",2:5,amine_secondary:amine_secondary,2(amine_secondary) > 5(amine_secondary)
C1CNCCN1,10.126,2:5,amine_secondary:amine_secondary,"1,4-Diazacyclohexane (Perhydro-1,4-diazine)(Piperazine)",2:5,amine_secondary:amine_secondary,2(amine_secondary) > 5(amine_secondary)
C1CNCCN1,9.731,2:5,amine_secondary:amine_secondary,"1,4-Diazacyclohexane (Perhydro-1,4-diazine)(Piperazine)",2:5,amine_secondary:amine_secondary,2(amine_secondary) > 5(amine_secondary)
C1CNCCN1,9.367,2:5,amine_secondary:amine_secondary,"1,4-Diazacyclohexane (Perhydro-1,4-diazine)(Piperazine)",2:5,amine_secondary:amine_secondary,2(amine_secondary) > 5(amine_secondary)
C1CNCCN1,5.64,2:5,amine_secondary:amine_secondary,"1,4-Diazacyclohexane (Perhydro-1,4-diazine)(Piperazine)",2:5,amine_secondary:amine_secondary,2(amine_secondary) > 5(amine_secondary)
C1CNCCN1,5.8,2:5,amine_secondary:amine_secondary,"1,4-Diazacyclohexane (Perhydro-1,4-diazine)(Piperazine)",2:5,amine_secondary:amine_secondary,2(amine_secondary) > 5(amine_secondary)
C1CNCCN1,6.04,2:5,amine_secondary:amine_secondary,"1,4-Diazacyclohexane (Perhydro-1,4-diazine)(Piperazine)",2:5,amine_secondary:amine_secondary,2(amine_secondary) > 5(amine_secondary)
C1CNCCN1,5.614,2:5,amine_secondary:amine_secondary,"1,4-Diazacyclohexane (Perhydro-1,4-diazine)(Piperazine)",2:5,amine_secondary:amine_secondary,2(amine_secondary) > 5(amine_secondary)
C1CNCCN1,5.333,2:5,amine_secondary:amine_secondary,"1,4-Diazacyclohexane (Perhydro-1,4-diazine)(Piperazine)",2:5,amine_secondary:amine_secondary,2(amine_secondary) > 5(amine_secondary)
C1CNCCN1,5.066,2:5,amine_secondary:amine_secondary,"1,4-Diazacyclohexane (Perhydro-1,4-diazine)(Piperazine)",2:5,amine_secondary:amine_secondary,2(amine_secondary) > 5(amine_secondary)
CC1CNCCN1,9.49,3:6,amine_secondary:amine_secondary,2-Methylpiperazine,3:6,amine_secondary:amine_secondary,3(amine_secondary) > 6(amine_secondary)
CC1CNCCN1,5.51,3:6,amine_secondary:amine_secondary,2-Methylpiperazine,3:6,amine_secondary:amine_secondary,3(amine_secondary) > 6(amine_secondary)