SMILES,pKa,Dissociable_Atoms,Functional_Group,Name
C[C@H](N)C(=O)N[C@H](CCCCN)C(=O)N[C@@H](C)C(=O)N[C@@H](C)C(=O)N[C@@H](C)C(O)=O,7.74,28:2:11,carboxylic_acid:amine_primary:amine_primary,L-Alanyl-D-lysyl-L-alanyl-L-alanyl-L-alanine
C[C@H](N)C(=O)N[C@H](CCCCN)C(=O)N[C@@H](C)C(=O)N[C@@H](C)C(=O)N[C@@H](C)C(O)=O,3.19,28:2:11,carboxylic_acid:amine_primary:amine_primary,L-Alanyl-D-lysyl-L-alanyl-L-alanyl-L-alanine
NCC(=O)NCC(=O)N[C@@H](Cc1c[nH]cn1)C(=O)NCC(=O)NCC(O)=O,7.42,25:0:4,carboxylic_acid:amine_primary:amine_secondary,Glycylglycyl-L-histidylglycylglycine
NCC(=O)NCC(=O)N[C@@H](Cc1c[nH]cn1)C(=O)NCC(=O)NCC(O)=O,6.03,25:0:4,carboxylic_acid:amine_primary:amine_secondary,Glycylglycyl-L-histidylglycylglycine
NCC(=O)NCC(=O)N[C@@H](Cc1c[nH]cn1)C(=O)NCC(=O)NCC(O)=O,3.14,25:0:4,carboxylic_acid:amine_primary:amine_secondary,Glycylglycyl-L-histidylglycylglycine
CC(C)[C@H](NC(=O)[C@H](CC(O)=O)NC(=O)[C@H](CCCCN)NC(=O)[C@@H](N)CCCNC(N)=N)C(=O)N[C@@H](Cc1ccc(O)cc1)C(O)=O,10.38,10:46:20:25:31,carboxylic_acid:carboxylic_acid:amine_primary:amine_primary:amine_primary,L-Arginyl-L-lysyl-L-aspartyl-L-valyl-L-tyrosine
CC(C)[C@H](NC(=O)[C@H](CC(O)=O)NC(=O)[C@H](CCCCN)NC(=O)[C@@H](N)CCCNC(N)=N)C(=O)N[C@@H](Cc1ccc(O)cc1)C(O)=O,9.75,10:46:20:25:31,carboxylic_acid:carboxylic_acid:amine_primary:amine_primary:amine_primary,L-Arginyl-L-lysyl-L-aspartyl-L-valyl-L-tyrosine
CC(C)[C@H](NC(=O)[C@H](CC(O)=O)NC(=O)[C@H](CCCCN)NC(=O)[C@@H](N)CCCNC(N)=N)C(=O)N[C@@H](Cc1ccc(O)cc1)C(O)=O,7.2,10:46:20:25:31,carboxylic_acid:carboxylic_acid:amine_primary:amine_primary:amine_primary,L-Arginyl-L-lysyl-L-aspartyl-L-valyl-L-tyrosine
CC(C)[C@H](NC(=O)[C@H](CC(O)=O)NC(=O)[C@H](CCCCN)NC(=O)[C@@H](N)CCCNC(N)=N)C(=O)N[C@@H](Cc1ccc(O)cc1)C(O)=O,3.25,10:46:20:25:31,carboxylic_acid:carboxylic_acid:amine_primary:amine_primary:amine_primary,L-Arginyl-L-lysyl-L-aspartyl-L-valyl-L-tyrosine
CC(C)[C@H](NC(=O)[C@H](CC(O)=O)NC(=O)[C@H](CCCCN)NC(=O)[C@@H](N)CCCNC(N)=N)C(=O)N[C@@H](Cc1ccc(O)cc1)C(O)=O,1.9,10:46:20:25:31,carboxylic_acid:carboxylic_acid:amine_primary:amine_primary:amine_primary,L-Arginyl-L-lysyl-L-aspartyl-L-valyl-L-tyrosine
N[C@@H](CCC(=O)N[C@@H](CSSC[C@H](NC(=O)CC[C@H](N)C(O)=O)C(=O)NCC(O)=O)C(=O)NCC(O)=O)C(O)=O,9.81,21:28:35:38:0:19,carboxylic_acid:carboxylic_acid:carboxylic_acid:carboxylic_acid:amine_primary:amine_primary,"N,N-[N'',N''''-Di(L-5-glutamyl)-L-cystinyl]di(glycine) (Oxidized glutathione) (Glutathione disulfide)"
N[C@@H](CCC(=O)N[C@@H](CSSC[C@H](NC(=O)CC[C@H](N)C(O)=O)C(=O)NCC(O)=O)C(=O)NCC(O)=O)C(O)=O,9.16,21:28:35:38:0:19,carboxylic_acid:carboxylic_acid:carboxylic_acid:carboxylic_acid:amine_primary:amine_primary,"N,N-[N'',N''''-Di(L-5-glutamyl)-L-cystinyl]di(glycine) (Oxidized glutathione) (Glutathione disulfide)"
N[C@@H](CCC(=O)N[C@@H](CSSC[C@H](NC(=O)CC[C@H](N)C(O)=O)C(=O)NCC(O)=O)C(=O)NCC(O)=O)C(O)=O,9.35,21:28:35:38:0:19,carboxylic_acid:carboxylic_acid:carboxylic_acid:carboxylic_acid:amine_primary:amine_primary,"N,N-[N'',N''''-Di(L-5-glutamyl)-L-cystinyl]di(glycine) (Oxidized glutathione) (Glutathione disulfide)"
N[C@@H](CCC(=O)N[C@@H](CSSC[C@H](NC(=O)CC[C@H](N)C(O)=O)C(=O)NCC(O)=O)C(=O)NCC(O)=O)C(O)=O,8.85,21:28:35:38:0:19,carboxylic_acid:carboxylic_acid:carboxylic_acid:carboxylic_acid:amine_primary:amine_primary,"N,N-[N'',N''''-Di(L-5-glutamyl)-L-cystinyl]di(glycine) (Oxidized glutathione) (Glutathione disulfide)"
N[C@@H](CCC(=O)N[C@@H](CSSC[C@H](NC(=O)CC[C@H](N)C(O)=O)C(=O)NCC(O)=O)C(=O)NCC(O)=O)C(O)=O,8.54,21:28:35:38:0:19,carboxylic_acid:carboxylic_acid:carboxylic_acid:carboxylic_acid:amine_primary:amine_primary,"N,N-[N'',N''''-Di(L-5-glutamyl)-L-cystinyl]di(glycine) (Oxidized glutathione) (Glutathione disulfide)"
N[C@@H](CCC(=O)N[C@@H](CSSC[C@H](NC(=O)CC[C@H](N)C(O)=O)C(=O)NCC(O)=O)C(=O)NCC(O)=O)C(O)=O,8.59,21:28:35:38:0:19,carboxylic_acid:carboxylic_acid:carboxylic_acid:carboxylic_acid:amine_primary:amine_primary,"N,N-[N'',N''''-Di(L-5-glutamyl)-L-cystinyl]di(glycine) (Oxidized glutathione) (Glutathione disulfide)"
N[C@@H](CCC(=O)N[C@@H](CSSC[C@H](NC(=O)CC[C@H](N)C(O)=O)C(=O)NCC(O)=O)C(=O)NCC(O)=O)C(O)=O,3.83,21:28:35:38:0:19,carboxylic_acid:carboxylic_acid:carboxylic_acid:carboxylic_acid:amine_primary:amine_primary,"N,N-[N'',N''''-Di(L-5-glutamyl)-L-cystinyl]di(glycine) (Oxidized glutathione) (Glutathione disulfide)"
N[C@@H](CCC(=O)N[C@@H](CSSC[C@H](NC(=O)CC[C@H](N)C(O)=O)C(=O)NCC(O)=O)C(=O)NCC(O)=O)C(O)=O,3.98,21:28:35:38:0:19,carboxylic_acid:carboxylic_acid:carboxylic_acid:carboxylic_acid:amine_primary:amine_primary,"N,N-[N'',N''''-Di(L-5-glutamyl)-L-cystinyl]di(glycine) (Oxidized glutathione) (Glutathione disulfide)"
N[C@@H](CCC(=O)N[C@@H](CSSC[C@H](NC(=O)CC[C@H](N)C(O)=O)C(=O)NCC(O)=O)C(=O)NCC(O)=O)C(O)=O,3.16,21:28:35:38:0:19,carboxylic_acid:carboxylic_acid:carboxylic_acid:carboxylic_acid:amine_primary:amine_primary,"N,N-[N'',N''''-Di(L-5-glutamyl)-L-cystinyl]di(glycine) (Oxidized glutathione) (Glutathione disulfide)"
N[C@@H](CCC(=O)N[C@@H](CSSC[C@H](NC(=O)CC[C@H](N)C(O)=O)C(=O)NCC(O)=O)C(=O)NCC(O)=O)C(O)=O,2.35,21:28:35:38:0:19,carboxylic_acid:carboxylic_acid:carboxylic_acid:carboxylic_acid:amine_primary:amine_primary,"N,N-[N'',N''''-Di(L-5-glutamyl)-L-cystinyl]di(glycine) (Oxidized glutathione) (Glutathione disulfide)"
N[C@@H](CCC(=O)N[C@@H](CSSC[C@H](NC(=O)CC[C@H](N)C(O)=O)C(=O)NCC(O)=O)C(=O)NCC(O)=O)C(O)=O,2.64,21:28:35:38:0:19,carboxylic_acid:carboxylic_acid:carboxylic_acid:carboxylic_acid:amine_primary:amine_primary,"N,N-[N'',N''''-Di(L-5-glutamyl)-L-cystinyl]di(glycine) (Oxidized glutathione) (Glutathione disulfide)"
N[C@@H](CCC(=O)N[C@@H](CSSC[C@H](NC(=O)CC[C@H](N)C(O)=O)C(=O)NCC(O)=O)C(=O)NCC(O)=O)C(O)=O,1.5,21:28:35:38:0:19,carboxylic_acid:carboxylic_acid:carboxylic_acid:carboxylic_acid:amine_primary:amine_primary,"N,N-[N'',N''''-Di(L-5-glutamyl)-L-cystinyl]di(glycine) (Oxidized glutathione) (Glutathione disulfide)"
N[C@@H](CCC(=O)N[C@@H](CSSC[C@H](NC(=O)CC[C@H](N)C(O)=O)C(=O)NCC(O)=O)C(=O)NCC(O)=O)C(O)=O,1.8,21:28:35:38:0:19,carboxylic_acid:carboxylic_acid:carboxylic_acid:carboxylic_acid:amine_primary:amine_primary,"N,N-[N'',N''''-Di(L-5-glutamyl)-L-cystinyl]di(glycine) (Oxidized glutathione) (Glutathione disulfide)"
NCC(=O)NCC(=O)N1CCC[C@H]1C(=O)NCC(=O)NCC(=O)NCC(=O)N2CCC[C@H]2C(=O)NCC(O)=O,8.17,37:0,carboxylic_acid:amine_primary,Glycylglycyl-L-prolylglycylglycylglycyl-L-prolylglycine
NCC(=O)NCC(=O)N1CCC[C@H]1C(=O)NCC(=O)NCC(=O)NCC(=O)N2CCC[C@H]2C(=O)NCC(O)=O,3.11,37:0,carboxylic_acid:amine_primary,Glycylglycyl-L-prolylglycylglycylglycyl-L-prolylglycine
NCCCC[C@H](NC(=O)[C@@H]1CCCN1C(=O)CNC(=O)CNC(=O)[C@H](CCCCN)NC(=O)[C@@H]2CCCN2C(=O)CNC(=O)CN)C(O)=O,10.48,47:0:29:45,carboxylic_acid:amine_primary:amine_primary:amine_primary,Glycylglycyl-L-prolyl-L-lysylglycylglycyl-L-prolyl-L-lysine
NCCCC[C@H](NC(=O)[C@@H]1CCCN1C(=O)CNC(=O)CNC(=O)[C@H](CCCCN)NC(=O)[C@@H]2CCCN2C(=O)CNC(=O)CN)C(O)=O,10.12,47:0:29:45,carboxylic_acid:amine_primary:amine_primary:amine_primary,Glycylglycyl-L-prolyl-L-lysylglycylglycyl-L-prolyl-L-lysine
NCCCC[C@H](NC(=O)[C@@H]1CCCN1C(=O)CNC(=O)CNC(=O)[C@H](CCCCN)NC(=O)[C@@H]2CCCN2C(=O)CNC(=O)CN)C(O)=O,7.98,47:0:29:45,carboxylic_acid:amine_primary:amine_primary:amine_primary,Glycylglycyl-L-prolyl-L-lysylglycylglycyl-L-prolyl-L-lysine
NCCCC[C@H](NC(=O)[C@@H]1CCCN1C(=O)CNC(=O)CNC(=O)[C@H](CCCCN)NC(=O)[C@@H]2CCCN2C(=O)CNC(=O)CN)C(O)=O,3.12,47:0:29:45,carboxylic_acid:amine_primary:amine_primary:amine_primary,Glycylglycyl-L-prolyl-L-lysylglycylglycyl-L-prolyl-L-lysine
CC(C)CC(NC(=O)[C@H](Cc1ccccc1)NC(=O)[C@H](CC(O)=O)NC(=O)CNC(=O)[C@H](CCC(O)=O)NC(=O)CNC(=O)[C@H](CO)NC(=O)[C@H](CC(O)=O)NC(=O)[C@H](C)N)C(=O)N[C@@H](C)C(=O)N[C@@H](CCC(O)=O)C(=O)NCC(=O)NCC(=O)NCC(=O)N[C@@H](C(C)C)C(=O)N[C@@H](CCCNC(N)=N)C(O)=O,8.4,22:35:53:73:106:60,carboxylic_acid:carboxylic_acid:carboxylic_acid:carboxylic_acid:carboxylic_acid:amine_primary,L-Alanyl-L-aspartyl-L-serylglycyl-L-glutamylglycyl-L-aspartyl-L-phenylalanyl-L-leucyl-L-alanyl-L-glutamylglycylglycylglycyl-L-valyl-L-arginine (fibrinopeptide A)
CC(C)CC(NC(=O)[C@H](Cc1ccccc1)NC(=O)[C@H](CC(O)=O)NC(=O)CNC(=O)[C@H](CCC(O)=O)NC(=O)CNC(=O)[C@H](CO)NC(=O)[C@H](CC(O)=O)NC(=O)[C@H](C)N)C(=O)N[C@@H](C)C(=O)N[C@@H](CCC(O)=O)C(=O)NCC(=O)NCC(=O)NCC(=O)N[C@@H](C(C)C)C(=O)N[C@@H](CCCNC(N)=N)C(O)=O,5.03,22:35:53:73:106:60,carboxylic_acid:carboxylic_acid:carboxylic_acid:carboxylic_acid:carboxylic_acid:amine_primary,L-Alanyl-L-aspartyl-L-serylglycyl-L-glutamylglycyl-L-aspartyl-L-phenylalanyl-L-leucyl-L-alanyl-L-glutamylglycylglycylglycyl-L-valyl-L-arginine (fibrinopeptide A)
CC(C)CC(NC(=O)[C@H](Cc1ccccc1)NC(=O)[C@H](CC(O)=O)NC(=O)CNC(=O)[C@H](CCC(O)=O)NC(=O)CNC(=O)[C@H](CO)NC(=O)[C@H](CC(O)=O)NC(=O)[C@H](C)N)C(=O)N[C@@H](C)C(=O)N[C@@H](CCC(O)=O)C(=O)NCC(=O)NCC(=O)NCC(=O)N[C@@H](C(C)C)C(=O)N[C@@H](CCCNC(N)=N)C(O)=O,4.31,22:35:53:73:106:60,carboxylic_acid:carboxylic_acid:carboxylic_acid:carboxylic_acid:carboxylic_acid:amine_primary,L-Alanyl-L-aspartyl-L-serylglycyl-L-glutamylglycyl-L-aspartyl-L-phenylalanyl-L-leucyl-L-alanyl-L-glutamylglycylglycylglycyl-L-valyl-L-arginine (fibrinopeptide A)
CC(C)CC(NC(=O)[C@H](Cc1ccccc1)NC(=O)[C@H](CC(O)=O)NC(=O)CNC(=O)[C@H](CCC(O)=O)NC(=O)CNC(=O)[C@H](CO)NC(=O)[C@H](CC(O)=O)NC(=O)[C@H](C)N)C(=O)N[C@@H](C)C(=O)N[C@@H](CCC(O)=O)C(=O)NCC(=O)NCC(=O)NCC(=O)N[C@@H](C(C)C)C(=O)N[C@@H](CCCNC(N)=N)C(O)=O,3.62,22:35:53:73:106:60,carboxylic_acid:carboxylic_acid:carboxylic_acid:carboxylic_acid:carboxylic_acid:amine_primary,L-Alanyl-L-aspartyl-L-serylglycyl-L-glutamylglycyl-L-aspartyl-L-phenylalanyl-L-leucyl-L-alanyl-L-glutamylglycylglycylglycyl-L-valyl-L-arginine (fibrinopeptide A)
CC(C)CC(NC(=O)[C@H](Cc1ccccc1)NC(=O)[C@H](CC(O)=O)NC(=O)CNC(=O)[C@H](CCC(O)=O)NC(=O)CNC(=O)[C@H](CO)NC(=O)[C@H](CC(O)=O)NC(=O)[C@H](C)N)C(=O)N[C@@H](C)C(=O)N[C@@H](CCC(O)=O)C(=O)NCC(=O)NCC(=O)NCC(=O)N[C@@H](C(C)C)C(=O)N[C@@H](CCCNC(N)=N)C(O)=O,3.5,22:35:53:73:106:60,carboxylic_acid:carboxylic_acid:carboxylic_acid:carboxylic_acid:carboxylic_acid:amine_primary,L-Alanyl-L-aspartyl-L-serylglycyl-L-glutamylglycyl-L-aspartyl-L-phenylalanyl-L-leucyl-L-alanyl-L-glutamylglycylglycylglycyl-L-valyl-L-arginine (fibrinopeptide A)
CC(C)CC(NC(=O)[C@H](Cc1ccccc1)NC(=O)[C@H](CC(O)=O)NC(=O)CNC(=O)[C@H](CCC(O)=O)NC(=O)CNC(=O)[C@H](CO)NC(=O)[C@H](CC(O)=O)NC(=O)[C@H](C)N)C(=O)N[C@@H](C)C(=O)N[C@@H](CCC(O)=O)C(=O)NCC(=O)NCC(=O)NCC(=O)N[C@@H](C(C)C)C(=O)N[C@@H](CCCNC(N)=N)C(O)=O,2.6,22:35:53:73:106:60,carboxylic_acid:carboxylic_acid:carboxylic_acid:carboxylic_acid:carboxylic_acid:amine_primary,L-Alanyl-L-aspartyl-L-serylglycyl-L-glutamylglycyl-L-aspartyl-L-phenylalanyl-L-leucyl-L-alanyl-L-glutamylglycylglycylglycyl-L-valyl-L-arginine (fibrinopeptide A)
Nc1ccccc1C(O)=O,4.78,0:8,aniline:carboxylic_acid,2-Aminobenzoic acid (Anthranilic acid)
Nc1ccccc1C(O)=O,4.96,0:8,aniline:carboxylic_acid,2-Aminobenzoic acid (Anthranilic acid)
Nc1ccccc1C(O)=O,2.01,0:8,aniline:carboxylic_acid,2-Aminobenzoic acid (Anthranilic acid)
Nc1ccccc1C(O)=O,2.22,0:8,aniline:carboxylic_acid,2-Aminobenzoic acid (Anthranilic acid)
Nc1ccccc1C(O)=O,2.08,0:8,aniline:carboxylic_acid,2-Aminobenzoic acid (Anthranilic acid)
Nc1cccc(c1)C(O)=O,4.55,0:8,aniline:carboxylic_acid,3-Aminobenzoic acid
Nc1cccc(c1)C(O)=O,4.76,0:8,aniline:carboxylic_acid,3-Aminobenzoic acid
Nc1cccc(c1)C(O)=O,3.14,0:8,aniline:carboxylic_acid,3-Aminobenzoic acid
Nc1cccc(c1)C(O)=O,3.08,0:8,aniline:carboxylic_acid,3-Aminobenzoic acid
Nc1ccc(cc1)C(O)=O,4.69,0:8,aniline:carboxylic_acid,4-Aminobenzoic acid
Nc1ccc(cc1)C(O)=O,4.87,0:8,aniline:carboxylic_acid,4-Aminobenzoic acid
Nc1ccc(cc1)C(O)=O,2.5,0:8,aniline:carboxylic_acid,4-Aminobenzoic acid
Nc1ccc(cc1)C(O)=O,2.41,0:8,aniline:carboxylic_acid,4-Aminobenzoic acid
Nc1cc2ccccc2c(c1)C(O)=O,4.52,0:12,aniline:carboxylic_acid,3-Amino-1-naphthoic acid
Nc1cc2ccccc2c(c1)C(O)=O,2.52,0:12,aniline:carboxylic_acid,3-Amino-1-naphthoic acid
Nc1ccc(C(O)=O)c2ccccc12,4.84,0:6,aniline:carboxylic_acid,4-Amino-1-naphthoic acid
Nc1ccc(C(O)=O)c2ccccc12,2.0,0:6,aniline:carboxylic_acid,4-Amino-1-naphthoic acid
Nc1cccc2c1cccc2C(O)=O,4.44,0:12,aniline:carboxylic_acid,5-Amino-1-naphthoic acid
Nc1cccc2c1cccc2C(O)=O,2.79,0:12,aniline:carboxylic_acid,5-Amino-1-naphthoic acid
Nc1ccc2c(cccc2C(O)=O)c1,4.55,0:11,aniline:carboxylic_acid,6-Amino-1-naphthoic acid
Nc1ccc2c(cccc2C(O)=O)c1,2.88,0:11,aniline:carboxylic_acid,6-Amino-1-naphthoic acid
Nc1cccc2cccc(C(O)=O)c12,4.55,0:11,aniline:carboxylic_acid,8-Amino-1-naphthoic acid
Nc1cccc2cccc(C(O)=O)c12,1.7,0:11,aniline:carboxylic_acid,8-Amino-1-naphthoic acid
Nc1c(ccc2ccccc12)C(O)=O,4.96,0:12,aniline:carboxylic_acid,1-Amino-2-naphthoic acid
Nc1c(ccc2ccccc12)C(O)=O,1.0,0:12,aniline:carboxylic_acid,1-Amino-2-naphthoic acid
Nc1cc2ccccc2cc1C(O)=O,4.87,0:12,aniline:carboxylic_acid,3-Amino-2-naphthoic acid
Nc1cc2ccccc2cc1C(O)=O,2.41,0:12,aniline:carboxylic_acid,3-Amino-2-naphthoic acid
Nc1cc(cc2ccccc12)C(O)=O,4.49,0:12,aniline:carboxylic_acid,4-Amino-2-naphthoic acid
Nc1cc(cc2ccccc12)C(O)=O,2.91,0:12,aniline:carboxylic_acid,4-Amino-2-naphthoic acid
Nc1ccc(cc1C(O)=O)[S](O)(=O)=O,4.29,0:8,aniline:carboxylic_acid,2-Amino-5-sulfobenzoic acid
Nc1ccc(cc1C(O)=O)[S](O)(=O)=O,1.6,0:8,aniline:carboxylic_acid,2-Amino-5-sulfobenzoic acid
CNc1ccccc1C(O)=O,5.29,1:9,amine_secondary:carboxylic_acid,2-(Methylamino)benzoic acid
CNc1ccccc1C(O)=O,2.0,1:9,amine_secondary:carboxylic_acid,2-(Methylamino)benzoic acid
CCNc1ccccc1C(O)=O,5.7,2:10,amine_secondary:carboxylic_acid,2-(Ethylamino)benzoic acid
CCNc1ccccc1C(O)=O,1.8,2:10,amine_secondary:carboxylic_acid,2-(Ethylamino)benzoic acid
CN(C)c1ccccc1C(O)=O,1.6,1,tertiary_amine,2-(Dimethylamino)benzoic acid
CN(C)c1ccc(cc1)C(O)=O,5.0,1,tertiary_amine,4-(Dimethylamino)benzoic acid
CN(C)c1ccc(cc1)C(O)=O,2.57,1,tertiary_amine,4-(Dimethylamino)benzoic acid
OCCNc1ccccc1C(O)=O,4.82,11:3,carboxylic_acid:amine_secondary,2-(2-Hydroxyethylamino)benzoic acid
OCCNc1ccccc1C(O)=O,2.0,11:3,carboxylic_acid:amine_secondary,2-(2-Hydroxyethylamino)benzoic acid
CN(CCO)c1ccccc1C(O)=O,8.24,1,tertiary_amine,2-(N-2-Hydroxyethyl-N-methylamino)benzoic acid
CCN(CCO)c1ccccc1C(O)=O,8.99,2,tertiary_amine,2-(N-2-Hydroxyethyl-N-ethylamino)benzoic acid
OCCNc1cc(ccc1C(O)=O)C(O)=O,4.73,11:14:3,carboxylic_acid:carboxylic_acid:amine_secondary,"2-(2-Hydroxyethylamino)benzene-1,4-dicarboxylic acid"
OCCNc1cc(ccc1C(O)=O)C(O)=O,3.4,11:14:3,carboxylic_acid:carboxylic_acid:amine_secondary,"2-(2-Hydroxyethylamino)benzene-1,4-dicarboxylic acid"
OCCNc1cc(ccc1C(O)=O)C(O)=O,1.4,11:14:3,carboxylic_acid:carboxylic_acid:amine_secondary,"2-(2-Hydroxyethylamino)benzene-1,4-dicarboxylic acid"
OCCN(CCO)c1cc(ccc1C(O)=O)C(O)=O,7.0,17:14,carboxylic_acid:carboxylic_acid,"2-[Bis(2-hydroxyethyl)amino]benzene-1,4-dicarboxylic acid"
OCCN(CCO)c1cc(ccc1C(O)=O)C(O)=O,3.1,17:14,carboxylic_acid:carboxylic_acid,"2-[Bis(2-hydroxyethyl)amino]benzene-1,4-dicarboxylic acid"
OCCNc1cc(C(O)=O)c(NCCO)cc1C(O)=O,6.74,8:18,carboxylic_acid:carboxylic_acid,"2,5-Bis(2-hydroxyethylamino)benzene-1,4-dicarboxylic acid"
OCCNc1cc(C(O)=O)c(NCCO)cc1C(O)=O,3.66,8:18,carboxylic_acid:carboxylic_acid,"2,5-Bis(2-hydroxyethylamino)benzene-1,4-dicarboxylic acid"
CCOC(=O)c1cc(NCCO)c(cc1NCCO)C(O)=O,5.84,20:8,carboxylic_acid:amine_secondary,"2,5-Bis(2-hydroxyethylamino)benzene-1,4-dicarboxylic acid monoethyl ester"
CCOC(=O)c1cc(NCCO)c(cc1NCCO)C(O)=O,2.1,20:8,carboxylic_acid:amine_secondary,"2,5-Bis(2-hydroxyethylamino)benzene-1,4-dicarboxylic acid monoethyl ester"
OCCNc1cc(C(O)=O)c(cc1C(O)=O)N(CCO)CCO,8.29,8:14,carboxylic_acid:carboxylic_acid,"2-Bis(2-hydroxyethyl)amino-5-(2-hydroxyethylamino)benzene-1,4-dicarboxylic acid"
OCCNc1cc(C(O)=O)c(cc1C(O)=O)N(CCO)CCO,3.65,8:14,carboxylic_acid:carboxylic_acid,"2-Bis(2-hydroxyethyl)amino-5-(2-hydroxyethylamino)benzene-1,4-dicarboxylic acid"
OCCN(CCO)c1cc(C(O)=O)c(cc1C(O)=O)N(CCO)CCO,7.9,11:17:0,carboxylic_acid:carboxylic_acid:alcohol,"2,5-Bis[bis(2-hydroxyethyl)amino]benzene-1,4-dicarboxylic acid"
OCCN(CCO)c1cc(C(O)=O)c(cc1C(O)=O)N(CCO)CCO,4.96,11:17:0,carboxylic_acid:carboxylic_acid:alcohol,"2,5-Bis[bis(2-hydroxyethyl)amino]benzene-1,4-dicarboxylic acid"
OCCN(CCO)c1cc(C(O)=O)c(cc1C(O)=O)N(CCO)CCO,1.9,11:17:0,carboxylic_acid:carboxylic_acid:alcohol,"2,5-Bis[bis(2-hydroxyethyl)amino]benzene-1,4-dicarboxylic acid"
Nc1ccc(cc1N)C(O)=O,4.75,9:7,carboxylic_acid:aniline,"3,4-Diaminobenzoic acid"
Nc1ccc(cc1N)C(O)=O,3.69,9:7,carboxylic_acid:aniline,"3,4-Diaminobenzoic acid"
OC(=O)CNc1cc(C(O)=O)c(NCC(O)=O)cc1C(O)=O,6.94,0:9:15:20,carboxylic_acid:carboxylic_acid:carboxylic_acid:carboxylic_acid,"2,5-Bis(carboxymethylamino)benzene-1,4-dicarboxylic acid"
OC(=O)CNc1cc(C(O)=O)c(NCC(O)=O)cc1C(O)=O,4.26,0:9:15:20,carboxylic_acid:carboxylic_acid:carboxylic_acid:carboxylic_acid,"2,5-Bis(carboxymethylamino)benzene-1,4-dicarboxylic acid"
OC(=O)CNc1cc(C(O)=O)c(NCC(O)=O)cc1C(O)=O,3.32,0:9:15:20,carboxylic_acid:carboxylic_acid:carboxylic_acid:carboxylic_acid,"2,5-Bis(carboxymethylamino)benzene-1,4-dicarboxylic acid"
OC(=O)CNc1cc(C(O)=O)c(NCC(O)=O)cc1C(O)=O,2.32,0:9:15:20,carboxylic_acid:carboxylic_acid:carboxylic_acid:carboxylic_acid,"2,5-Bis(carboxymethylamino)benzene-1,4-dicarboxylic acid"
Nc1c(O)cccc1C(O)=O,10.12,9:3,carboxylic_acid:phenol,2-Amino-3-hydroxybenzoic acid
Nc1c(O)cccc1C(O)=O,5.19,9:3,carboxylic_acid:phenol,2-Amino-3-hydroxybenzoic acid
OC(=O)CNc1ccccc1,4.38,0:4,carboxylic_acid:amine_secondary,N-Phenylglycine
OC(=O)CNc1ccccc1,2.0,0:4,carboxylic_acid:amine_secondary,N-Phenylglycine
OCCN(CC(O)=O)c1ccccc1C(O)=O,7.73,6:15,carboxylic_acid:carboxylic_acid,N-(2-Carboxyphenyl)-N-(2-hydroxyethyl)glycine
OCCN(CC(O)=O)c1ccccc1C(O)=O,2.41,6:15,carboxylic_acid:carboxylic_acid,N-(2-Carboxyphenyl)-N-(2-hydroxyethyl)glycine
OCCN(CC(O)=O)c1cc(C(O)=O)c(cc1C(O)=O)N(CCO)CC(O)=O,9.06,6:12:18:26,carboxylic_acid:carboxylic_acid:carboxylic_acid:carboxylic_acid,"2,5-Bis[N-(carboxymethyl)-N-(2-hydroxyethyl)amino]benzene-1,4-dicarboxylic acid"
OCCN(CC(O)=O)c1cc(C(O)=O)c(cc1C(O)=O)N(CCO)CC(O)=O,5.25,6:12:18:26,carboxylic_acid:carboxylic_acid:carboxylic_acid:carboxylic_acid,"2,5-Bis[N-(carboxymethyl)-N-(2-hydroxyethyl)amino]benzene-1,4-dicarboxylic acid"
OCCN(CC(O)=O)c1cc(C(O)=O)c(cc1C(O)=O)N(CCO)CC(O)=O,2.68,6:12:18:26,carboxylic_acid:carboxylic_acid:carboxylic_acid:carboxylic_acid,"2,5-Bis[N-(carboxymethyl)-N-(2-hydroxyethyl)amino]benzene-1,4-dicarboxylic acid"
OCCN(CC(O)=O)c1cc(C(O)=O)c(cc1C(O)=O)N(CCO)CC(O)=O,2.0,6:12:18:26,carboxylic_acid:carboxylic_acid:carboxylic_acid:carboxylic_acid,"2,5-Bis[N-(carboxymethyl)-N-(2-hydroxyethyl)amino]benzene-1,4-dicarboxylic acid"
OC(=O)CNc1cccc2cccnc12,4.26,1:4:12,carboxylic_acid:amine_secondary:pyridine_nitrogen,N-(8-Quinolyl)glycine
OC(=O)CNc1cccc2cccnc12,2.98,1:4:12,carboxylic_acid:amine_secondary:pyridine_nitrogen,N-(8-Quinolyl)glycine
OC(=O)CNc1cccc2cccnc12,1.9,1:4:12,carboxylic_acid:amine_secondary:pyridine_nitrogen,N-(8-Quinolyl)glycine
OC(=O)CC(Nc1ccc(NC(CC(O)=O)C(O)=O)cc1)C(O)=O,6.63,0:14:17:22,carboxylic_acid:carboxylic_acid:carboxylic_acid:carboxylic_acid,"1,4-Phenylenediiminodibutanedioic acid"
OC(=O)CC(Nc1ccc(NC(CC(O)=O)C(O)=O)cc1)C(O)=O,4.62,0:14:17:22,carboxylic_acid:carboxylic_acid:carboxylic_acid:carboxylic_acid,"1,4-Phenylenediiminodibutanedioic acid"
OC(=O)CC(Nc1ccc(NC(CC(O)=O)C(O)=O)cc1)C(O)=O,3.58,0:14:17:22,carboxylic_acid:carboxylic_acid:carboxylic_acid:carboxylic_acid,"1,4-Phenylenediiminodibutanedioic acid"
OC(=O)CC(Nc1ccc(NC(CC(O)=O)C(O)=O)cc1)C(O)=O,3.03,0:14:17:22,carboxylic_acid:carboxylic_acid:carboxylic_acid:carboxylic_acid,"1,4-Phenylenediiminodibutanedioic acid"
OC(=O)CN(CC(O)=O)c1ccccc1,4.98,0:7,carboxylic_acid:carboxylic_acid,N-Phenyliminodiacetic acid
OC(=O)CN(CC(O)=O)c1ccccc1,5.02,0:7,carboxylic_acid:carboxylic_acid,N-Phenyliminodiacetic acid
OC(=O)CN(CC(O)=O)c1ccccc1,5.04,0:7,carboxylic_acid:carboxylic_acid,N-Phenyliminodiacetic acid
OC(=O)CN(CC(O)=O)c1ccccc1,2.4,0:7,carboxylic_acid:carboxylic_acid,N-Phenyliminodiacetic acid
OC(=O)CN(CC(O)=O)c1ccccc1[S](O)(=O)=O,6.29,0:7,carboxylic_acid:carboxylic_acid,N-(2-Sulfophenyl)iminodiacetic acid
OC(=O)CN(CC(O)=O)c1ccccc1[S](O)(=O)=O,3.4,0:7,carboxylic_acid:carboxylic_acid,N-(2-Sulfophenyl)iminodiacetic acid