SMILES,pKa,Dissociable_Atoms,Functional_Group,Name
CC(=O)N(O)CCCCCNC(=O)CCC(=O)N(O)CCCCCNC(=O)CCC(=O)N(O)CCCCCN,9.05,38:10:24:4,amine_primary:amine_secondary:amine_secondary:alcohol,Desferriferrioxamin B
CC(=O)N(O)CCCCCNC(=O)CCC(=O)N(O)CCCCCNC(=O)CCC(=O)N(O)CCCCCN,8.32,38:10:24:4,amine_primary:amine_secondary:amine_secondary:alcohol,Desferriferrioxamin B
CC(=O)N(O)CCCCCNC(=O)CCC(=O)N(O)CCCCCNC(=O)CCC(=O)N(O)CCCCCN,8.39,38:10:24:4,amine_primary:amine_secondary:amine_secondary:alcohol,Desferriferrioxamin B
CC(=O)N(O)CCCCCNC(=O)CCC(=O)N(O)CCCCCNC(=O)CCC(=O)N(O)CCCCCN,8.51,38:10:24:4,amine_primary:amine_secondary:amine_secondary:alcohol,Desferriferrioxamin B
ON1CCCCCNC(=O)CCC(=O)N(O)CCCCCNC(=O)CCC(=O)N(O)CCCCCNC(=O)CCC1=O,9.89,7:21:35,amine_secondary:amine_secondary:amine_secondary,Desferriferrioxamin E (Nocardamin)
ON1CCCCCNC(=O)CCC(=O)N(O)CCCCCNC(=O)CCC(=O)N(O)CCCCCNC(=O)CCC1=O,9.42,7:21:35,amine_secondary:amine_secondary:amine_secondary,Desferriferrioxamin E (Nocardamin)
ON1CCCCCNC(=O)CCC(=O)N(O)CCCCCNC(=O)CCC(=O)N(O)CCCCCNC(=O)CCC1=O,8.63,7:21:35,amine_secondary:amine_secondary:amine_secondary,Desferriferrioxamin E (Nocardamin)
CNO,5.96,1,amine_secondary,N-Methylhydroxylamine
CN(C)O,5.2,1,tertiary_amine,"N,N-Dimethylhydroxylamine"
CON,4.6,2,amine_primary,O-Methylhydroxylamine
CNOC,4.75,1,amine_secondary,"N,O-Dimethylhydroxylamine"
CON(C)C,3.65,2,tertiary_amine,"N,N,O-Trimethylhydroxylamine"
ON1C(=O)CCCC1=O,7.65,0,alcohol,"N-Hydroxy-2,6-dioxoperhydroazine (N-Hydroxyglutarimide)"
CC(=O)C(/C)=N/O,9.28,6,alcohol,"Butane-2,3-dione monoxime (Diacetylmonoxime)"
CC(=O)C(/C)=N/O,9.51,6,alcohol,"Butane-2,3-dione monoxime (Diacetylmonoxime)"
CC(=NO)C(=O)c1ccccc1,9.1,3,alcohol,"1-Phenylpropane-1,2-dione 2-oxime"
CC(=NO)C(=O)c1ccccc1,9.31,3,alcohol,"1-Phenylpropane-1,2-dione 2-oxime"
CON=C(C)C=NO,10.45,7,alcohol,"Butane-2,3-dione dioxime (Dimethylglyoxime)"
CON=C(C)C=NO,10.66,7,alcohol,"Butane-2,3-dione dioxime (Dimethylglyoxime)"
CCON=C(C)C=NO,10.46,8,alcohol,"Pentane-2,3-dione dioxime (Ethylmethylglyoxime)"
CCON=C(CC)C=NO,10.67,9,alcohol,"Hexane-3,4-dione dioxime (Diethylglyoxime)"
CCCON=C(CCC)C=NO,10.81,11,alcohol,"Octane-4,5-dione dioxime (Dipropylglyoxime)"
ONC1=C(CCCC1)N=O,10.57,1,amine_secondary,"Cyclohexane-1,2-dione dioxime (Nioxime)"
ONC1=C(CCCC1)N=O,10.7,1,amine_secondary,"Cyclohexane-1,2-dione dioxime (Nioxime)"
CC1CCC(=C(C1)NO)N=O,10.54,7,amine_secondary,"4-Methylcyclohexane-1,2-dione dioxime (4-Methylnioxime)"
ONC1=C(CCCCC1)N=O,10.54,1,amine_secondary,"Cycloheptane-1,2-dione dioxime (Heptoxime)"
ONC1=C(CCCCC1)N=O,10.49,1,amine_secondary,"Cycloheptane-1,2-dione dioxime (Heptoxime)"
ONC1=C(CCCCC1)N=O,10.56,1,amine_secondary,"Cycloheptane-1,2-dione dioxime (Heptoxime)"
ONC1=C(CCCCC1)N=O,10.7,1,amine_secondary,"Cycloheptane-1,2-dione dioxime (Heptoxime)"
ONC(/c1ccccc1)=C(N=O)\c2ccccc2,10.3,1,amine_secondary,"1,2-Diphenylethane-1,2-dione dioxime (alpha-Benzil dioxime)"
ONC(/c1ccccc1)=C(N=O)\c2ccccc2,10.15,1,amine_secondary,"1,2-Diphenylethane-1,2-dione dioxime (alpha-Benzil dioxime)"
ON=C(c1occc1)C(=NO)c2occc2,9.73,0,alcohol,"1,2-Di(2-oxole)ethane-1,2-dione dioxime (alpha-Furil dioxime)"
ON=C(c1occc1)C(=NO)c2occc2,9.72,0,alcohol,"1,2-Di(2-oxole)ethane-1,2-dione dioxime (alpha-Furil dioxime)"
ON=C1C(=O)NC(=O)NC1=O,13.2,0:5:8,alcohol:amine_secondary:amine_secondary,"2,4,5,6-Tetraoxoperhydro-1,3-diazine 5-oxime (Violuric acid)"
ON=C1C(=O)NC(=O)NC1=O,14.1,0:5:8,alcohol:amine_secondary:amine_secondary,"2,4,5,6-Tetraoxoperhydro-1,3-diazine 5-oxime (Violuric acid)"
ON=C1C(=O)NC(=O)NC1=O,9.62,0:5:8,alcohol:amine_secondary:amine_secondary,"2,4,5,6-Tetraoxoperhydro-1,3-diazine 5-oxime (Violuric acid)"
ON=C1C(=O)NC(=O)NC1=O,9.35,0:5:8,alcohol:amine_secondary:amine_secondary,"2,4,5,6-Tetraoxoperhydro-1,3-diazine 5-oxime (Violuric acid)"
ON=C1C(=O)NC(=O)NC1=O,9.31,0:5:8,alcohol:amine_secondary:amine_secondary,"2,4,5,6-Tetraoxoperhydro-1,3-diazine 5-oxime (Violuric acid)"
ON=C1C(=O)NC(=O)NC1=O,9.43,0:5:8,alcohol:amine_secondary:amine_secondary,"2,4,5,6-Tetraoxoperhydro-1,3-diazine 5-oxime (Violuric acid)"
ON=C1C(=O)NC(=O)NC1=O,10.07,0:5:8,alcohol:amine_secondary:amine_secondary,"2,4,5,6-Tetraoxoperhydro-1,3-diazine 5-oxime (Violuric acid)"
ON=C1C(=O)NC(=O)NC1=O,4.35,0:5:8,alcohol:amine_secondary:amine_secondary,"2,4,5,6-Tetraoxoperhydro-1,3-diazine 5-oxime (Violuric acid)"
ON=C1C(=O)NC(=O)NC1=O,4.25,0:5:8,alcohol:amine_secondary:amine_secondary,"2,4,5,6-Tetraoxoperhydro-1,3-diazine 5-oxime (Violuric acid)"
ON=C1C(=O)NC(=O)NC1=O,4.26,0:5:8,alcohol:amine_secondary:amine_secondary,"2,4,5,6-Tetraoxoperhydro-1,3-diazine 5-oxime (Violuric acid)"
ON=C1C(=O)NC(=O)NC1=O,4.37,0:5:8,alcohol:amine_secondary:amine_secondary,"2,4,5,6-Tetraoxoperhydro-1,3-diazine 5-oxime (Violuric acid)"
ON=C1C(=O)NC(=O)NC1=O,4.58,0:5:8,alcohol:amine_secondary:amine_secondary,"2,4,5,6-Tetraoxoperhydro-1,3-diazine 5-oxime (Violuric acid)"
NNC(N)=S,1.7,0,amine_primary,Thiosemicarbazide
NNC(N)=S,1.8,0,amine_primary,Thiosemicarbazide
NNC(N)=S,1.9,0,amine_primary,Thiosemicarbazide
NNC(N)=S,2.0,0,amine_primary,Thiosemicarbazide
NC(=S)NN=Cc1ccc(cc1)[S](O)(=O)=O,10.8,0,amine_primary,1-(4-Sulfobenzylidene)thiosemicarbazide (p-Sulfobenzaldehyde thiosemicarbazone)
NC(=S)NN=C1C(=O)Nc2ccc(cc12)[S](O)(=O)=O,8.43,0,amine_primary,"1-(4-Sulfobenzo[1,2-d]-2,3-dioxoazolidine)thiosemicarbozide (5-Sulfoisatin-3-thiosemicarbazone)"
CN1C(=O)C(=NNC(N)=S)c2cc(ccc12)[S](O)(=O)=O,8.48,8,amine_primary,"1-(N-Methyl-4-sulfobenzo[1,2-d]-2,3-dioxoazolidine)thiosemicarbozide (1-Methyl-5-sulfoisatin-3-thiosemicarbazone)"
NNC(N)=[Se],0.9,0,amine_primary,Selenosemicarbazide
NNC(=O)NN,4.14,0:5,amine_primary:amine_primary,Carbohydrazide
NNC(=O)NN,2.09,0:5,amine_primary:amine_primary,Carbohydrazide
NNC(=S)NN,3.13,0:5,amine_primary:amine_primary,Thiocarbohydrazide
NNC(=S)NN,3.16,0:5,amine_primary:amine_primary,Thiocarbohydrazide
NNC(=S)NN,3.21,0:5,amine_primary:amine_primary,Thiocarbohydrazide
NNC(=S)NN,3.39,0:5,amine_primary:amine_primary,Thiocarbohydrazide
NNC(=S)NN,0.8,0:5,amine_primary:amine_primary,Thiocarbohydrazide
NNC(=S)NN,1.0,0:5,amine_primary:amine_primary,Thiocarbohydrazide
S=C(NNc1ccccc1)N=Nc2ccccc2,4.45,2,amine_secondary,"1,5-Diphenyl-1,2,4,5-tetraazapent-1-en-3-thione (Diphenylthiocarbazone)(Dithizone)"
NC(=S)C(N)=S,13.1,0:4,amine_primary:amine_primary,Dithiooxamide
NC(=S)C(N)=S,10.84,0:4,amine_primary:amine_primary,Dithiooxamide
NC(=S)C(N)=S,10.78,0:4,amine_primary:amine_primary,Dithiooxamide
NC(=S)C(N)=S,10.77,0:4,amine_primary:amine_primary,Dithiooxamide
NC(=S)C(N)=S,11.05,0:4,amine_primary:amine_primary,Dithiooxamide
CNC(=S)C(N)=S,13.8,1:5,amine_secondary:amine_primary,N-Methyldithiooxamide
CNC(=S)C(N)=S,11.09,1:5,amine_secondary:amine_primary,N-Methyldithiooxamide
CNC(=S)C(N)=S,11.03,1:5,amine_secondary:amine_primary,N-Methyldithiooxamide
CNC(=S)C(N)=S,11.3,1:5,amine_secondary:amine_primary,N-Methyldithiooxamide
CNC(=S)C(=S)NC,14.2,1:6,amine_secondary:amine_secondary,"N,N'-Dimethyldithiooxamide"
CNC(=S)C(=S)NC,11.67,1:6,amine_secondary:amine_secondary,"N,N'-Dimethyldithiooxamide"
CN(C)C(=S)C(N)=S,10.56,1,tertiary_amine,"N,N-Dimethyldithiooxamide"
CN(C)C(=S)C(N)=S,10.49,1,tertiary_amine,"N,N-Dimethyldithiooxamide"
CN(C)C(=S)C(N)=S,10.46,1,tertiary_amine,"N,N-Dimethyldithiooxamide"
CN(C)C(=S)C(N)=S,10.76,1,tertiary_amine,"N,N-Dimethyldithiooxamide"
O[S](=O)(=O)CCNC(=S)C(=S)NCC[S](O)(=O)=O,11.1,6:11,amine_secondary:amine_secondary,"N,N'-Bis(2-sulfoethyl)dithiooxamide"
O[S](=O)(=O)CCNC(=S)C(=S)NCC[S](O)(=O)=O,10.5,6:11,amine_secondary:amine_secondary,"N,N'-Bis(2-sulfoethyl)dithiooxamide"
O[S](=O)(=O)CCNC(=S)C(=S)NCC[S](O)(=O)=O,11.73,6:11,amine_secondary:amine_secondary,"N,N'-Bis(2-sulfoethyl)dithiooxamide"
O[S](=O)(=O)CCNC(=S)C(=S)NCC[S](O)(=O)=O,2.55,6:11,amine_secondary:amine_secondary,"N,N'-Bis(2-sulfoethyl)dithiooxamide"
OCCNC(=S)C(=S)NCCO,11.07,3,amine_secondary,"N,N'-Bis(2-hydroxyethyl)dithiooxamide"
NC(N)=N,13.5,0,amine_primary,Guanidine
NC(=N)NC(N)=N,13.0,0:5,amine_primary:amine_primary,Biguanide
NC(=N)NC(N)=N,3.01,0:5,amine_primary:amine_primary,Biguanide
[H+].[Cl-].CN(C)C(=N)N=C(N)N,12.4,9:10,amine_primary:amine_primary,"1,1-Dimethylbiguanide (Metformin)"
[H+].[Cl-].CN(C)C(=N)N=C(N)N,2.96,9:10,amine_primary:amine_primary,"1,1-Dimethylbiguanide (Metformin)"
[H+].[Cl-].CN(C)C(=N)N=C(N)N,3.24,9:10,amine_primary:amine_primary,"1,1-Dimethylbiguanide (Metformin)"
[OH-],13.78,1,alcohol,Hydroxide ion
[OH-],13.95,1,alcohol,Hydroxide ion
[OH-],13.38,1,alcohol,Hydroxide ion
[OH-],13.69,1,alcohol,Hydroxide ion
[OH-],13.74,1,alcohol,Hydroxide ion
[OH-],13.77,1,alcohol,Hydroxide ion
[OH-],13.71,1,alcohol,Hydroxide ion
[OH-],13.94,1,alcohol,Hydroxide ion
[OH-],13.8,1,alcohol,Hydroxide ion
[OH-],13.93,1,alcohol,Hydroxide ion
[OH-],13.96,1,alcohol,Hydroxide ion
[OH-],13.87,1,alcohol,Hydroxide ion
[OH-],13.99,1,alcohol,Hydroxide ion
[OH-],14.15,1,alcohol,Hydroxide ion
[OH-],14.2,1,alcohol,Hydroxide ion
[OH-],14.52,1,alcohol,Hydroxide ion
[OH-],14.47,1,alcohol,Hydroxide ion
[OH-],15.22,1,alcohol,Hydroxide ion
[OH-],15.94,1,alcohol,Hydroxide ion
[OH-],14.533,1,alcohol,Hydroxide ion
[OH-],13.997,1,alcohol,Hydroxide ion
[OH-],13.544,1,alcohol,Hydroxide ion
O[V](O)(O)=O,13.5,0:2,alcohol:alcohol,Hydrogen vanadate (Vanadic acid)
O[V](O)(O)=O,13.3,0:2,alcohol:alcohol,Hydrogen vanadate (Vanadic acid)
O[V](O)(O)=O,13.4,0:2,alcohol:alcohol,Hydrogen vanadate (Vanadic acid)
O[V](O)(O)=O,13.2,0:2,alcohol:alcohol,Hydrogen vanadate (Vanadic acid)
O[V](O)(O)=O,13.1,0:2,alcohol:alcohol,Hydrogen vanadate (Vanadic acid)
O[V](O)(O)=O,14.3,0:2,alcohol:alcohol,Hydrogen vanadate (Vanadic acid)
O[V](O)(O)=O,8.23,0:2,alcohol:alcohol,Hydrogen vanadate (Vanadic acid)
O[V](O)(O)=O,8.31,0:2,alcohol:alcohol,Hydrogen vanadate (Vanadic acid)
O[V](O)(O)=O,7.89,0:2,alcohol:alcohol,Hydrogen vanadate (Vanadic acid)
O[V](O)(O)=O,7.88,0:2,alcohol:alcohol,Hydrogen vanadate (Vanadic acid)
O[V](O)(O)=O,7.85,0:2,alcohol:alcohol,Hydrogen vanadate (Vanadic acid)
O[V](O)(O)=O,8.04,0:2,alcohol:alcohol,Hydrogen vanadate (Vanadic acid)
O[V](O)(O)=O,7.84,0:2,alcohol:alcohol,Hydrogen vanadate (Vanadic acid)
O[V](O)(O)=O,8.0,0:2,alcohol:alcohol,Hydrogen vanadate (Vanadic acid)
O[V](O)(O)=O,8.55,0:2,alcohol:alcohol,Hydrogen vanadate (Vanadic acid)
O[Cr](O)(=O)=O,6.05,0:2,alcohol:alcohol,Hydrogen chromate (Chromic acid)
O[Cr](O)(=O)=O,5.81,0:2,alcohol:alcohol,Hydrogen chromate (Chromic acid)
O[Cr](O)(=O)=O,5.73,0:2,alcohol:alcohol,Hydrogen chromate (Chromic acid)
O[Cr](O)(=O)=O,5.68,0:2,alcohol:alcohol,Hydrogen chromate (Chromic acid)
O[Cr](O)(=O)=O,5.91,0:2,alcohol:alcohol,Hydrogen chromate (Chromic acid)
O[Cr](O)(=O)=O,6.51,0:2,alcohol:alcohol,Hydrogen chromate (Chromic acid)
O[Cr](O)(=O)=O,0.6,0:2,alcohol:alcohol,Hydrogen chromate (Chromic acid)
O[Cr](O)(=O)=O,0.7,0:2,alcohol:alcohol,Hydrogen chromate (Chromic acid)
O[Cr](O)(=O)=O,0.2,0:2,alcohol:alcohol,Hydrogen chromate (Chromic acid)
O[Mo](O)(=O)=O,3.78,0:2,alcohol:alcohol,Hydrogen molybdate (Molybdic acid)
O[Mo](O)(=O)=O,3.39,0:2,alcohol:alcohol,Hydrogen molybdate (Molybdic acid)
O[Mo](O)(=O)=O,3.52,0:2,alcohol:alcohol,Hydrogen molybdate (Molybdic acid)
O[Mo](O)(=O)=O,3.89,0:2,alcohol:alcohol,Hydrogen molybdate (Molybdic acid)
O[Mo](O)(=O)=O,4.24,0:2,alcohol:alcohol,Hydrogen molybdate (Molybdic acid)
O[Mo](O)(=O)=O,3.77,0:2,alcohol:alcohol,Hydrogen molybdate (Molybdic acid)
O[Mo](O)(=O)=O,3.96,0:2,alcohol:alcohol,Hydrogen molybdate (Molybdic acid)
O[Mo](O)(=O)=O,3.7,0:2,alcohol:alcohol,Hydrogen molybdate (Molybdic acid)
O[Mo](O)(=O)=O,3.61,0:2,alcohol:alcohol,Hydrogen molybdate (Molybdic acid)
O[Mo](O)(=O)=O,4.0,0:2,alcohol:alcohol,Hydrogen molybdate (Molybdic acid)
O[W](O)(=O)=O,3.2,0,alcohol,Hydrogen tungstate (Tungstic acid)
O[W](O)(=O)=O,3.0,0,alcohol,Hydrogen tungstate (Tungstic acid)
O[W](O)(=O)=O,2.9,0,alcohol,Hydrogen tungstate (Tungstic acid)
O[W](O)(=O)=O,2.7,0,alcohol,Hydrogen tungstate (Tungstic acid)
O[W](O)(=O)=O,3.6,0,alcohol,Hydrogen tungstate (Tungstic acid)
OB(O)O,8.98,0,alcohol,Hydrogen borate (Boric acid)
OB(O)O,8.87,0,alcohol,Hydrogen borate (Boric acid)
OB(O)O,8.75,0,alcohol,Hydrogen borate (Boric acid)
OB(O)O,8.85,0,alcohol,Hydrogen borate (Boric acid)
OB(O)O,8.97,0,alcohol,Hydrogen borate (Boric acid)
OB(O)O,8.83,0,alcohol,Hydrogen borate (Boric acid)
OB(O)O,8.89,0,alcohol,Hydrogen borate (Boric acid)
OB(O)O,8.79,0,alcohol,Hydrogen borate (Boric acid)
OB(O)O,9.0,0,alcohol,Hydrogen borate (Boric acid)
OB(O)O,8.81,0,alcohol,Hydrogen borate (Boric acid)
OB(O)O,8.95,0,alcohol,Hydrogen borate (Boric acid)
OB(O)O,9.11,0,alcohol,Hydrogen borate (Boric acid)
OB(O)O,8.91,0,alcohol,Hydrogen borate (Boric acid)
OB(O)O,9.02,0,alcohol,Hydrogen borate (Boric acid)
OB(O)O,9.38,0,alcohol,Hydrogen borate (Boric acid)
OB(O)O,9.236,0,alcohol,Hydrogen borate (Boric acid)
OB(O)O,9.125,0,alcohol,Hydrogen borate (Boric acid)
C#N,9.04,0,nitrile,Hydrogen cyanide (Hydrocyanic acid)
C#N,8.95,0,nitrile,Hydrogen cyanide (Hydrocyanic acid)
C#N,9.22,0,nitrile,Hydrogen cyanide (Hydrocyanic acid)
C#N,9.48,0,nitrile,Hydrogen cyanide (Hydrocyanic acid)
C#N,9.66,0,nitrile,Hydrogen cyanide (Hydrocyanic acid)
C#N,9.63,0,nitrile,Hydrogen cyanide (Hydrocyanic acid)
C#N,9.21,0,nitrile,Hydrogen cyanide (Hydrocyanic acid)
C#N,8.88,0,nitrile,Hydrogen cyanide (Hydrocyanic acid)
OC#N,3.48,3,nitrile,Hydrogen cyanate (Cyanic acid)
SC#N,0.9,3,nitrile,Hydrogen thiocyanate (Thiocyanic acid)
SC#N,0.8,3,nitrile,Hydrogen thiocyanate (Thiocyanic acid)
SC#N,1.1,3,nitrile,Hydrogen thiocyanate (Thiocyanic acid)
OC(O)=O,9.91,0:2,carboxylic_acid:carboxylic_acid,Hydrogen carbonate (Carbonic acid)
OC(O)=O,9.61,0:2,carboxylic_acid:carboxylic_acid,Hydrogen carbonate (Carbonic acid)
OC(O)=O,9.73,0:2,carboxylic_acid:carboxylic_acid,Hydrogen carbonate (Carbonic acid)
OC(O)=O,9.54,0:2,carboxylic_acid:carboxylic_acid,Hydrogen carbonate (Carbonic acid)
OC(O)=O,9.51,0:2,carboxylic_acid:carboxylic_acid,Hydrogen carbonate (Carbonic acid)
OC(O)=O,9.7,0:2,carboxylic_acid:carboxylic_acid,Hydrogen carbonate (Carbonic acid)
OC(O)=O,9.46,0:2,carboxylic_acid:carboxylic_acid,Hydrogen carbonate (Carbonic acid)
OC(O)=O,9.75,0:2,carboxylic_acid:carboxylic_acid,Hydrogen carbonate (Carbonic acid)
OC(O)=O,9.47,0:2,carboxylic_acid:carboxylic_acid,Hydrogen carbonate (Carbonic acid)
OC(O)=O,9.59,0:2,carboxylic_acid:carboxylic_acid,Hydrogen carbonate (Carbonic acid)
OC(O)=O,9.66,0:2,carboxylic_acid:carboxylic_acid,Hydrogen carbonate (Carbonic acid)
OC(O)=O,10.49,0:2,carboxylic_acid:carboxylic_acid,Hydrogen carbonate (Carbonic acid)
OC(O)=O,10.329,0:2,carboxylic_acid:carboxylic_acid,Hydrogen carbonate (Carbonic acid)
OC(O)=O,10.22,0:2,carboxylic_acid:carboxylic_acid,Hydrogen carbonate (Carbonic acid)
OC(O)=O,6.13,0:2,carboxylic_acid:carboxylic_acid,Hydrogen carbonate (Carbonic acid)
OC(O)=O,6.0,0:2,carboxylic_acid:carboxylic_acid,Hydrogen carbonate (Carbonic acid)
OC(O)=O,5.99,0:2,carboxylic_acid:carboxylic_acid,Hydrogen carbonate (Carbonic acid)
OC(O)=O,5.95,0:2,carboxylic_acid:carboxylic_acid,Hydrogen carbonate (Carbonic acid)
OC(O)=O,6.02,0:2,carboxylic_acid:carboxylic_acid,Hydrogen carbonate (Carbonic acid)
OC(O)=O,5.96,0:2,carboxylic_acid:carboxylic_acid,Hydrogen carbonate (Carbonic acid)
OC(O)=O,5.97,0:2,carboxylic_acid:carboxylic_acid,Hydrogen carbonate (Carbonic acid)
OC(O)=O,6.33,0:2,carboxylic_acid:carboxylic_acid,Hydrogen carbonate (Carbonic acid)
OC(O)=O,6.08,0:2,carboxylic_acid:carboxylic_acid,Hydrogen carbonate (Carbonic acid)
OC(O)=O,6.15,0:2,carboxylic_acid:carboxylic_acid,Hydrogen carbonate (Carbonic acid)
OC(O)=O,6.464,0:2,carboxylic_acid:carboxylic_acid,Hydrogen carbonate (Carbonic acid)
OC(O)=O,6.352,0:2,carboxylic_acid:carboxylic_acid,Hydrogen carbonate (Carbonic acid)
OC(O)=O,6.298,0:2,carboxylic_acid:carboxylic_acid,Hydrogen carbonate (Carbonic acid)
SC([S-])=S,8.22,0,thione_sulfur,Hydrogen trithiocarbonate
SC([S-])=S,2.68,0,thione_sulfur,Hydrogen trithiocarbonate
[SeH]C([Se-])=[Se],7.13,0,selenium_hydride,Hydrogen triselenocarbonate
[SeH]C([Se-])=[Se],1.16,0,selenium_hydride,Hydrogen triselenocarbonate
NC(O)=O,6.76,2,carboxylic_acid,Carbamic acid
O[Si](O)(O)O,12.96,0:2,alcohol:alcohol,Hydrogen silicate (Silicic acid)
O[Si](O)(O)O,12.62,0:2,alcohol:alcohol,Hydrogen silicate (Silicic acid)
O[Si](O)(O)O,12.65,0:2,alcohol:alcohol,Hydrogen silicate (Silicic acid)
O[Si](O)(O)O,12.71,0:2,alcohol:alcohol,Hydrogen silicate (Silicic acid)
O[Si](O)(O)O,13.2,0:2,alcohol:alcohol,Hydrogen silicate (Silicic acid)
O[Si](O)(O)O,9.58,0:2,alcohol:alcohol,Hydrogen silicate (Silicic acid)
O[Si](O)(O)O,9.47,0:2,alcohol:alcohol,Hydrogen silicate (Silicic acid)
O[Si](O)(O)O,9.46,0:2,alcohol:alcohol,Hydrogen silicate (Silicic acid)
O[Si](O)(O)O,9.42,0:2,alcohol:alcohol,Hydrogen silicate (Silicic acid)
O[Si](O)(O)O,9.54,0:2,alcohol:alcohol,Hydrogen silicate (Silicic acid)
O[Si](O)(O)O,9.84,0:2,alcohol:alcohol,Hydrogen silicate (Silicic acid)
N,9.26,0,amine_primary,Ammonia
N,9.28,0,amine_primary,Ammonia
N,9.33,0,amine_primary,Ammonia
N,9.354,0,amine_primary,Ammonia
N,9.41,0,amine_primary,Ammonia
N,9.39,0,amine_primary,Ammonia
N,9.43,0,amine_primary,Ammonia
N,9.51,0,amine_primary,Ammonia
N,9.57,0,amine_primary,Ammonia
N,9.62,0,amine_primary,Ammonia
N,9.75,0,amine_primary,Ammonia
N,9.74,0,amine_primary,Ammonia
N,9.93,0,amine_primary,Ammonia
N,9.83,0,amine_primary,Ammonia
N,9.97,0,amine_primary,Ammonia
N,10.1,0,amine_primary,Ammonia
N,10.45,0,amine_primary,Ammonia
N,9.731,0,amine_primary,Ammonia
N,9.244,0,amine_primary,Ammonia
N,8.805,0,amine_primary,Ammonia
NN,8.07,0:1,amine_primary:amine_primary,Hydrazine
NN,8.06,0:1,amine_primary:amine_primary,Hydrazine
NN,8.18,0:1,amine_primary:amine_primary,Hydrazine
NN,8.48,0:1,amine_primary:amine_primary,Hydrazine
NN,7.98,0:1,amine_primary:amine_primary,Hydrazine
NN,0.21,0:1,amine_primary:amine_primary,Hydrazine
NN,0.24,0:1,amine_primary:amine_primary,Hydrazine
NO,5.96,0,amine_primary,Hydroxylamine
NO,6.0,0,amine_primary,Hydroxylamine
NO,6.06,0,amine_primary,Hydroxylamine
NO,6.21,0,amine_primary,Hydroxylamine
N=[N+]=[N-],4.45,0,amine_secondary,Hydrogen azide (Hydrazoic acid)
N=[N+]=[N-],4.38,0,amine_secondary,Hydrogen azide (Hydrazoic acid)
N=[N+]=[N-],4.42,0,amine_secondary,Hydrogen azide (Hydrazoic acid)
N=[N+]=[N-],4.78,0,amine_secondary,Hydrogen azide (Hydrazoic acid)
N=[N+]=[N-],4.99,0,amine_secondary,Hydrogen azide (Hydrazoic acid)
N=[N+]=[N-],4.65,0,amine_secondary,Hydrogen azide (Hydrazoic acid)
ON=O,2.94,0,alcohol,Hydrogen nitrite (Nitrous acid)
ON=O,2.87,0,alcohol,Hydrogen nitrite (Nitrous acid)
ON=O,3.0,0,alcohol,Hydrogen nitrite (Nitrous acid)
ON=O,2.88,0,alcohol,Hydrogen nitrite (Nitrous acid)
ON=O,3.24,0,alcohol,Hydrogen nitrite (Nitrous acid)
ON=O,3.01,0,alcohol,Hydrogen nitrite (Nitrous acid)
ON=O,3.15,0,alcohol,Hydrogen nitrite (Nitrous acid)
ON=NO,10.85,0:3,alcohol:alcohol,Hydrogen hyponitrite (Hyponitrous acid)
ON=NO,11.54,0:3,alcohol:alcohol,Hydrogen hyponitrite (Hyponitrous acid)
ON=NO,6.75,0:3,alcohol:alcohol,Hydrogen hyponitrite (Hyponitrous acid)
ON=NO,7.18,0:3,alcohol:alcohol,Hydrogen hyponitrite (Hyponitrous acid)
O[PH2]=O,1.1,0,phosphate,Hydrogen hypophosphite (Hypophosphorous acid)
O[PH2]=O,1.0,0,phosphate,Hydrogen hypophosphite (Hypophosphorous acid)
O[PH2]=O,1.3,0,phosphate,Hydrogen hypophosphite (Hypophosphorous acid)
OP(O)O,6.34,0:1,phosphate:phosphate,Hydrogen phosphite (Phosphorous acid)
OP(O)O,6.35,0:1,phosphate:phosphate,Hydrogen phosphite (Phosphorous acid)
OP(O)O,6.08,0:1,phosphate:phosphate,Hydrogen phosphite (Phosphorous acid)
OP(O)O,6.14,0:1,phosphate:phosphate,Hydrogen phosphite (Phosphorous acid)
OP(O)O,6.01,0:1,phosphate:phosphate,Hydrogen phosphite (Phosphorous acid)
OP(O)O,6.09,0:1,phosphate:phosphate,Hydrogen phosphite (Phosphorous acid)
OP(O)O,6.0,0:1,phosphate:phosphate,Hydrogen phosphite (Phosphorous acid)
OP(O)O,6.12,0:1,phosphate:phosphate,Hydrogen phosphite (Phosphorous acid)
OP(O)O,6.2,0:1,phosphate:phosphate,Hydrogen phosphite (Phosphorous acid)
OP(O)O,6.78,0:1,phosphate:phosphate,Hydrogen phosphite (Phosphorous acid)