SMILES,pKa,Dissociable_Atoms,Functional_Group,Name,Dissociable_Atoms_Ordered,Functional_Group_Ordered,Dissociation_Order
OC(=O)c1cc(cc(Br)c1O)[S](O)(=O)=O,2.03,10:0,phenol:carboxylic_acid,3-Bromo-2-hydroxy-5-sulfobenzoic acid (3-Bromo-5-sulfosalicylic acid),0:10,carboxylic_acid:phenol,0(carboxylic_acid) > 10(phenol)
OC(=O)c1cc(ccc1O)N=Nc2ccc(cc2)[S](O)(=O)=O,11.04,9:0,phenol:carboxylic_acid,2-Hydroxy-5-(4-sulfophenylazo)benzoic acid (3-Carboxy-4-hydroxy-4'-sulfoazobenzene),0:9,carboxylic_acid:phenol,0(carboxylic_acid) > 9(phenol)
OC(=O)c1cc(ccc1O)N=Nc2ccc(cc2)[S](O)(=O)=O,2.38,9:0,phenol:carboxylic_acid,2-Hydroxy-5-(4-sulfophenylazo)benzoic acid (3-Carboxy-4-hydroxy-4'-sulfoazobenzene),0:9,carboxylic_acid:phenol,0(carboxylic_acid) > 9(phenol)
OC(=O)c1cc(cc(c1O)[S](O)(=O)=O)[S](O)(=O)=O,11.55,9:0,phenol:carboxylic_acid,"2-Hydroxy-3,5-disulfobenzoic acid (3,5-Disulfosalicylic acid)",0:9,carboxylic_acid:phenol,0(carboxylic_acid) > 9(phenol)
OC(=O)c1cc(cc(c1O)[S](O)(=O)=O)[S](O)(=O)=O,11.07,9:0,phenol:carboxylic_acid,"2-Hydroxy-3,5-disulfobenzoic acid (3,5-Disulfosalicylic acid)",0:9,carboxylic_acid:phenol,0(carboxylic_acid) > 9(phenol)
OC(=O)c1cc(cc(c1O)[S](O)(=O)=O)[S](O)(=O)=O,10.95,9:0,phenol:carboxylic_acid,"2-Hydroxy-3,5-disulfobenzoic acid (3,5-Disulfosalicylic acid)",0:9,carboxylic_acid:phenol,0(carboxylic_acid) > 9(phenol)
OC(=O)c1cc(cc(c1O)[S](O)(=O)=O)[S](O)(=O)=O,12.5,9:0,phenol:carboxylic_acid,"2-Hydroxy-3,5-disulfobenzoic acid (3,5-Disulfosalicylic acid)",0:9,carboxylic_acid:phenol,0(carboxylic_acid) > 9(phenol)
OC(=O)c1cc(cc(c1O)[S](O)(=O)=O)[S](O)(=O)=O,2.03,9:0,phenol:carboxylic_acid,"2-Hydroxy-3,5-disulfobenzoic acid (3,5-Disulfosalicylic acid)",0:9,carboxylic_acid:phenol,0(carboxylic_acid) > 9(phenol)
OC(=O)c1cc(cc(c1O)[S](O)(=O)=O)[S](O)(=O)=O,1.7,9:0,phenol:carboxylic_acid,"2-Hydroxy-3,5-disulfobenzoic acid (3,5-Disulfosalicylic acid)",0:9,carboxylic_acid:phenol,0(carboxylic_acid) > 9(phenol)
OC(=O)c1cc(cc(c1O)[S](O)(=O)=O)[S](O)(=O)=O,2.69,9:0,phenol:carboxylic_acid,"2-Hydroxy-3,5-disulfobenzoic acid (3,5-Disulfosalicylic acid)",0:9,carboxylic_acid:phenol,0(carboxylic_acid) > 9(phenol)
COc1cccc(C(O)=O)c1O,13.95,11:8,phenol:carboxylic_acid,2-Hydroxy-3-methoxybenzoic acid (3-Methoxysalicylic acid),8:11,carboxylic_acid:phenol,8(carboxylic_acid) > 11(phenol)
COc1cccc(C(O)=O)c1O,2.69,11:8,phenol:carboxylic_acid,2-Hydroxy-3-methoxybenzoic acid (3-Methoxysalicylic acid),8:11,carboxylic_acid:phenol,8(carboxylic_acid) > 11(phenol)
COc1ccc(O)c(c1)C(O)=O,13.85,6:10,phenol:carboxylic_acid,2-Hydroxy-5-methoxybenzoic acid (5-Methoxysalicylic acid),10:6,carboxylic_acid:phenol,10(carboxylic_acid) > 6(phenol)
COc1ccc(O)c(c1)C(O)=O,2.92,6:10,phenol:carboxylic_acid,2-Hydroxy-5-methoxybenzoic acid (5-Methoxysalicylic acid),10:6,carboxylic_acid:phenol,10(carboxylic_acid) > 6(phenol)
OC(=O)c1cc(ccc1O)C#N,11.3,9:0,phenol:carboxylic_acid,2-Hydroxy-5-cyanobenzoic acid (5-Cyanosalicylic acid),0:9,carboxylic_acid:phenol,0(carboxylic_acid) > 9(phenol)
OC(=O)c1cc(ccc1O)C#N,2.36,9:0,phenol:carboxylic_acid,2-Hydroxy-5-cyanobenzoic acid (5-Cyanosalicylic acid),0:9,carboxylic_acid:phenol,0(carboxylic_acid) > 9(phenol)
Nc1ccc(C(O)=O)c(O)c1,13.7,9:0:6,phenol:aniline:carboxylic_acid,4-Amino-2-hydroxybenzoic acid (p-Aminosalicylic acid),6:9:0,carboxylic_acid:phenol:aniline,6(carboxylic_acid) > 9(phenol) > 0(aniline)
Nc1ccc(C(O)=O)c(O)c1,3.63,9:0:6,phenol:aniline:carboxylic_acid,4-Amino-2-hydroxybenzoic acid (p-Aminosalicylic acid),6:9:0,carboxylic_acid:phenol:aniline,6(carboxylic_acid) > 9(phenol) > 0(aniline)
Nc1ccc(C(O)=O)c(O)c1,3.66,9:0:6,phenol:aniline:carboxylic_acid,4-Amino-2-hydroxybenzoic acid (p-Aminosalicylic acid),6:9:0,carboxylic_acid:phenol:aniline,6(carboxylic_acid) > 9(phenol) > 0(aniline)
Nc1ccc(C(O)=O)c(O)c1,3.68,9:0:6,phenol:aniline:carboxylic_acid,4-Amino-2-hydroxybenzoic acid (p-Aminosalicylic acid),6:9:0,carboxylic_acid:phenol:aniline,6(carboxylic_acid) > 9(phenol) > 0(aniline)
Nc1ccc(C(O)=O)c(O)c1,4.08,9:0:6,phenol:aniline:carboxylic_acid,4-Amino-2-hydroxybenzoic acid (p-Aminosalicylic acid),6:9:0,carboxylic_acid:phenol:aniline,6(carboxylic_acid) > 9(phenol) > 0(aniline)
Nc1ccc(C(O)=O)c(O)c1,1.8,9:0:6,phenol:aniline:carboxylic_acid,4-Amino-2-hydroxybenzoic acid (p-Aminosalicylic acid),6:9:0,carboxylic_acid:phenol:aniline,6(carboxylic_acid) > 9(phenol) > 0(aniline)
Nc1ccc(C(O)=O)c(O)c1,2.05,9:0:6,phenol:aniline:carboxylic_acid,4-Amino-2-hydroxybenzoic acid (p-Aminosalicylic acid),6:9:0,carboxylic_acid:phenol:aniline,6(carboxylic_acid) > 9(phenol) > 0(aniline)
Nc1ccc(C(O)=O)c(O)c1,2.0,9:0:6,phenol:aniline:carboxylic_acid,4-Amino-2-hydroxybenzoic acid (p-Aminosalicylic acid),6:9:0,carboxylic_acid:phenol:aniline,6(carboxylic_acid) > 9(phenol) > 0(aniline)
Nc1ccc(C(O)=O)c(O)c1,2.08,9:0:6,phenol:aniline:carboxylic_acid,4-Amino-2-hydroxybenzoic acid (p-Aminosalicylic acid),6:9:0,carboxylic_acid:phenol:aniline,6(carboxylic_acid) > 9(phenol) > 0(aniline)
Nc1cccc(C(O)=O)c1O,12.54,10:0:7,phenol:aniline:carboxylic_acid,5-Amino-2-hydroxybenzoic acid (m-Aminosalicylic acid),7:10:0,carboxylic_acid:phenol:aniline,7(carboxylic_acid) > 10(phenol) > 0(aniline)
Nc1cccc(C(O)=O)c1O,11.54,10:0:7,phenol:aniline:carboxylic_acid,5-Amino-2-hydroxybenzoic acid (m-Aminosalicylic acid),7:10:0,carboxylic_acid:phenol:aniline,7(carboxylic_acid) > 10(phenol) > 0(aniline)
Nc1cccc(C(O)=O)c1O,5.33,10:0:7,phenol:aniline:carboxylic_acid,5-Amino-2-hydroxybenzoic acid (m-Aminosalicylic acid),7:10:0,carboxylic_acid:phenol:aniline,7(carboxylic_acid) > 10(phenol) > 0(aniline)
Nc1cccc(C(O)=O)c1O,5.6,10:0:7,phenol:aniline:carboxylic_acid,5-Amino-2-hydroxybenzoic acid (m-Aminosalicylic acid),7:10:0,carboxylic_acid:phenol:aniline,7(carboxylic_acid) > 10(phenol) > 0(aniline)
Nc1cccc(C(O)=O)c1O,2.0,10:0:7,phenol:aniline:carboxylic_acid,5-Amino-2-hydroxybenzoic acid (m-Aminosalicylic acid),7:10:0,carboxylic_acid:phenol:aniline,7(carboxylic_acid) > 10(phenol) > 0(aniline)
Nc1cccc(C(O)=O)c1O,2.28,10:0:7,phenol:aniline:carboxylic_acid,5-Amino-2-hydroxybenzoic acid (m-Aminosalicylic acid),7:10:0,carboxylic_acid:phenol:aniline,7(carboxylic_acid) > 10(phenol) > 0(aniline)
OC(=O)c1cccc(C(O)=O)c1O,4.53,12:0:9,phenol:carboxylic_acid:carboxylic_acid,"2,6-Dicarboxyphenol (2-Hydroxyisophthalic acid)",0:9:12,carboxylic_acid:carboxylic_acid:phenol,0(carboxylic_acid) > 9(carboxylic_acid) > 12(phenol)
OC(=O)c1cccc(C(O)=O)c1O,2.13,12:0:9,phenol:carboxylic_acid:carboxylic_acid,"2,6-Dicarboxyphenol (2-Hydroxyisophthalic acid)",0:9:12,carboxylic_acid:carboxylic_acid:phenol,0(carboxylic_acid) > 9(carboxylic_acid) > 12(phenol)
Nc1ccc(C(N)=O)c(O)c1,9.11,9:0,phenol:aniline,4-Amino-2-hydroxybenzoic acid amide (4-Aminosalicylamide),9:0,phenol:aniline,9(phenol) > 0(aniline)
Nc1ccc(C(N)=O)c(O)c1,3.0,9:0,phenol:aniline,4-Amino-2-hydroxybenzoic acid amide (4-Aminosalicylamide),9:0,phenol:aniline,9(phenol) > 0(aniline)
ONC(=O)c1ccccc1O,9.72,1:10,amine_secondary:phenol,2-Hydroxybenzohydroxamic acid,10:1,phenol:amine_secondary,10(phenol) > 1(amine_secondary)
ONC(=O)c1ccccc1O,7.37,1:10,amine_secondary:phenol,2-Hydroxybenzohydroxamic acid,10:1,phenol:amine_secondary,10(phenol) > 1(amine_secondary)
ON=Cc1ccccc1O,11.7,0:7,hydroxyl_group:phenol,2-Hydroxybenzaldehyde oxime (Salicylaldoxime),7:0,phenol:hydroxyl_group,7(phenol) > 0(hydroxyl_group)
ON=Cc1ccccc1O,11.5,0:7,hydroxyl_group:phenol,2-Hydroxybenzaldehyde oxime (Salicylaldoxime),7:0,phenol:hydroxyl_group,7(phenol) > 0(hydroxyl_group)
ON=Cc1ccccc1O,11.4,0:7,hydroxyl_group:phenol,2-Hydroxybenzaldehyde oxime (Salicylaldoxime),7:0,phenol:hydroxyl_group,7(phenol) > 0(hydroxyl_group)
ON=Cc1ccccc1O,12.1,0:7,hydroxyl_group:phenol,2-Hydroxybenzaldehyde oxime (Salicylaldoxime),7:0,phenol:hydroxyl_group,7(phenol) > 0(hydroxyl_group)
ON=Cc1ccccc1O,8.95,0:7,hydroxyl_group:phenol,2-Hydroxybenzaldehyde oxime (Salicylaldoxime),7:0,phenol:hydroxyl_group,7(phenol) > 0(hydroxyl_group)
ON=Cc1ccccc1O,8.84,0:7,hydroxyl_group:phenol,2-Hydroxybenzaldehyde oxime (Salicylaldoxime),7:0,phenol:hydroxyl_group,7(phenol) > 0(hydroxyl_group)