SMILES,pKa,Dissociable_Atoms,Functional_Group,Name,Dissociable_Atoms_Ordered,Functional_Group_Ordered,Dissociation_Order
c1ccc(nc1)c2nc(nc(n2)c3ccccn3)c4ccccn4,3.53,18:27,ring_nitrogen:heterocyclic_nitrogen,"2,4,6-Tri(2-pyridyl)-1,3,5-triazine",18:27,ring_nitrogen:heterocyclic_nitrogen,18(ring_nitrogen) > 27(heterocyclic_nitrogen)
c1ccc(nc1)c2nc(nc(n2)c3ccccn3)c4ccccn4,3.4,18:27,ring_nitrogen:heterocyclic_nitrogen,"2,4,6-Tri(2-pyridyl)-1,3,5-triazine",18:27,ring_nitrogen:heterocyclic_nitrogen,18(ring_nitrogen) > 27(heterocyclic_nitrogen)
c1ccc(nc1)c2nc(nc(n2)c3ccccn3)c4ccccn4,2.73,18:27,ring_nitrogen:heterocyclic_nitrogen,"2,4,6-Tri(2-pyridyl)-1,3,5-triazine",18:27,ring_nitrogen:heterocyclic_nitrogen,18(ring_nitrogen) > 27(heterocyclic_nitrogen)
c1ccc(nc1)c2nc(nc(n2)c3ccccn3)c4ccccn4,2.2,18:27,ring_nitrogen:heterocyclic_nitrogen,"2,4,6-Tri(2-pyridyl)-1,3,5-triazine",18:27,ring_nitrogen:heterocyclic_nitrogen,18(ring_nitrogen) > 27(heterocyclic_nitrogen)
C(CN(Cc1ccccn1)Cc2ccccn2)N(Cc3ccccn3)Cc4ccccn4,7.12,9:16:24:31,pyridine_nitrogen:pyridine_nitrogen:pyridine_nitrogen:pyridine_nitrogen,"Ethylenedinitrilotetrakis(methylene-2-pyridine) (N,N,N',N'-Tetra-2-picolylethylenediamine)(TPEN)",9:16:24:31,pyridine_nitrogen:pyridine_nitrogen:pyridine_nitrogen:pyridine_nitrogen,9(pyridine_nitrogen) > 16(pyridine_nitrogen) > 24(pyridine_nitrogen) > 31(pyridine_nitrogen)
C(CN(Cc1ccccn1)Cc2ccccn2)N(Cc3ccccn3)Cc4ccccn4,4.81,9:16:24:31,pyridine_nitrogen:pyridine_nitrogen:pyridine_nitrogen:pyridine_nitrogen,"Ethylenedinitrilotetrakis(methylene-2-pyridine) (N,N,N',N'-Tetra-2-picolylethylenediamine)(TPEN)",9:16:24:31,pyridine_nitrogen:pyridine_nitrogen:pyridine_nitrogen:pyridine_nitrogen,9(pyridine_nitrogen) > 16(pyridine_nitrogen) > 24(pyridine_nitrogen) > 31(pyridine_nitrogen)
C(CN(Cc1ccccn1)Cc2ccccn2)N(Cc3ccccn3)Cc4ccccn4,3.3,9:16:24:31,pyridine_nitrogen:pyridine_nitrogen:pyridine_nitrogen:pyridine_nitrogen,"Ethylenedinitrilotetrakis(methylene-2-pyridine) (N,N,N',N'-Tetra-2-picolylethylenediamine)(TPEN)",9:16:24:31,pyridine_nitrogen:pyridine_nitrogen:pyridine_nitrogen:pyridine_nitrogen,9(pyridine_nitrogen) > 16(pyridine_nitrogen) > 24(pyridine_nitrogen) > 31(pyridine_nitrogen)
C(CN(Cc1ccccn1)Cc2ccccn2)N(Cc3ccccn3)Cc4ccccn4,2.88,9:16:24:31,pyridine_nitrogen:pyridine_nitrogen:pyridine_nitrogen:pyridine_nitrogen,"Ethylenedinitrilotetrakis(methylene-2-pyridine) (N,N,N',N'-Tetra-2-picolylethylenediamine)(TPEN)",9:16:24:31,pyridine_nitrogen:pyridine_nitrogen:pyridine_nitrogen:pyridine_nitrogen,9(pyridine_nitrogen) > 16(pyridine_nitrogen) > 24(pyridine_nitrogen) > 31(pyridine_nitrogen)
NC1=NC(=O)N(C=C1)C2OC(CO[P](O)(=O)O[P](O)(O)=O)C(O)C2O,6.39,0:22:24,amine_primary:alcohol:alcohol,Cytidine-5'-(trihydrogendiphosphate) (CDP),0:22:24,amine_primary:alcohol:alcohol,0(amine_primary) > 22(alcohol) > 24(alcohol)
NC1=NC(=O)N(C=C1)C2OC(CO[P](O)(=O)O[P](O)(O)=O)C(O)C2O,6.43,0:22:24,amine_primary:alcohol:alcohol,Cytidine-5'-(trihydrogendiphosphate) (CDP),0:22:24,amine_primary:alcohol:alcohol,0(amine_primary) > 22(alcohol) > 24(alcohol)
NC1=NC(=O)N(C=C1)C2OC(CO[P](O)(=O)O[P](O)(O)=O)C(O)C2O,6.68,0:22:24,amine_primary:alcohol:alcohol,Cytidine-5'-(trihydrogendiphosphate) (CDP),0:22:24,amine_primary:alcohol:alcohol,0(amine_primary) > 22(alcohol) > 24(alcohol)
NC1=NC(=O)N(C=C1)C2OC(CO[P](O)(=O)O[P](O)(O)=O)C(O)C2O,6.38,0:22:24,amine_primary:alcohol:alcohol,Cytidine-5'-(trihydrogendiphosphate) (CDP),0:22:24,amine_primary:alcohol:alcohol,0(amine_primary) > 22(alcohol) > 24(alcohol)
NC1=NC(=O)N(C=C1)C2OC(CO[P](O)(=O)O[P](O)(O)=O)C(O)C2O,7.18,0:22:24,amine_primary:alcohol:alcohol,Cytidine-5'-(trihydrogendiphosphate) (CDP),0:22:24,amine_primary:alcohol:alcohol,0(amine_primary) > 22(alcohol) > 24(alcohol)
NC1=NC(=O)N(C=C1)C2OC(CO[P](O)(=O)O[P](O)(O)=O)C(O)C2O,4.46,0:22:24,amine_primary:alcohol:alcohol,Cytidine-5'-(trihydrogendiphosphate) (CDP),0:22:24,amine_primary:alcohol:alcohol,0(amine_primary) > 22(alcohol) > 24(alcohol)
NC1=NC(=O)N(C=C1)C2OC(CO[P](O)(=O)O[P](O)(O)=O)C(O)C2O,4.56,0:22:24,amine_primary:alcohol:alcohol,Cytidine-5'-(trihydrogendiphosphate) (CDP),0:22:24,amine_primary:alcohol:alcohol,0(amine_primary) > 22(alcohol) > 24(alcohol)
NC1=NC(=O)N(C=C1)C2OC(CO[P](O)(=O)O[P](O)(O)=O)C(O)C2O,1.0,0:22:24,amine_primary:alcohol:alcohol,Cytidine-5'-(trihydrogendiphosphate) (CDP),0:22:24,amine_primary:alcohol:alcohol,0(amine_primary) > 22(alcohol) > 24(alcohol)
NC1=NC(=O)N(C=C1)C2OC(CO[P](O)(=O)O[P](O)(=O)O[P](O)(O)=O)C(O)C2O,6.42,0:26,amine_primary:alcohol,Cytidine-5'-(tetrahydrogentriphosphate) (CTP),0:26,amine_primary:alcohol,0(amine_primary) > 26(alcohol)
NC1=NC(=O)N(C=C1)C2OC(CO[P](O)(=O)O[P](O)(=O)O[P](O)(O)=O)C(O)C2O,6.58,0:26,amine_primary:alcohol,Cytidine-5'-(tetrahydrogentriphosphate) (CTP),0:26,amine_primary:alcohol,0(amine_primary) > 26(alcohol)
NC1=NC(=O)N(C=C1)C2OC(CO[P](O)(=O)O[P](O)(=O)O[P](O)(O)=O)C(O)C2O,6.99,0:26,amine_primary:alcohol,Cytidine-5'-(tetrahydrogentriphosphate) (CTP),0:26,amine_primary:alcohol,0(amine_primary) > 26(alcohol)
NC1=NC(=O)N(C=C1)C2OC(CO[P](O)(=O)O[P](O)(=O)O[P](O)(O)=O)C(O)C2O,7.65,0:26,amine_primary:alcohol,Cytidine-5'-(tetrahydrogentriphosphate) (CTP),0:26,amine_primary:alcohol,0(amine_primary) > 26(alcohol)
NC1=NC(=O)N(C=C1)C2OC(CO[P](O)(=O)O[P](O)(=O)O[P](O)(O)=O)C(O)C2O,4.47,0:26,amine_primary:alcohol,Cytidine-5'-(tetrahydrogentriphosphate) (CTP),0:26,amine_primary:alcohol,0(amine_primary) > 26(alcohol)
OC1C(O)C(OC1CO[P](O)(=O)O[P](O)(O)=O)N2C=CC(=O)NC2=O,6.38,22:0,amine_secondary:alcohol,Uridine-5'-(trihydrogendiphosphate) (UDP),22:0,amine_secondary:alcohol,22(amine_secondary) > 0(alcohol)
OC1C(O)C(OC1CO[P](O)(=O)O[P](O)(O)=O)N2C=CC(=O)NC2=O,6.68,22:0,amine_secondary:alcohol,Uridine-5'-(trihydrogendiphosphate) (UDP),22:0,amine_secondary:alcohol,22(amine_secondary) > 0(alcohol)
OC1C(O)C(OC1CO[P](O)(=O)O[P](O)(O)=O)N2C=CC(=O)NC2=O,7.16,22:0,amine_secondary:alcohol,Uridine-5'-(trihydrogendiphosphate) (UDP),22:0,amine_secondary:alcohol,22(amine_secondary) > 0(alcohol)
OC1C(O)C(OC1CO[P](O)(=O)O[P](O)(O)=O)N2C=CC(=O)NC2=O,1.3,22:0,amine_secondary:alcohol,Uridine-5'-(trihydrogendiphosphate) (UDP),22:0,amine_secondary:alcohol,22(amine_secondary) > 0(alcohol)
OC1C(O)C(OC1CO[P](O)(=O)O[P](O)(=O)O[P](O)(O)=O)N2C=CC(=O)NC2=O,6.34,26:0,amine_secondary:alcohol,Uridine-5'-(tetrahydrogentriphosphate) (UTP),26:0,amine_secondary:alcohol,26(amine_secondary) > 0(alcohol)
OC1C(O)C(OC1CO[P](O)(=O)O[P](O)(=O)O[P](O)(O)=O)N2C=CC(=O)NC2=O,6.9,26:0,amine_secondary:alcohol,Uridine-5'-(tetrahydrogentriphosphate) (UTP),26:0,amine_secondary:alcohol,26(amine_secondary) > 0(alcohol)
OC1C(O)C(OC1CO[P](O)(=O)O[P](O)(=O)O[P](O)(O)=O)N2C=CC(=O)NC2=O,7.58,26:0,amine_secondary:alcohol,Uridine-5'-(tetrahydrogentriphosphate) (UTP),26:0,amine_secondary:alcohol,26(amine_secondary) > 0(alcohol)
OC1C(O)C(OC1CO[P](O)(=O)O[P](O)(=O)O[P](O)(O)=O)N2C=CC(=O)NC2=O,1.9,26:0,amine_secondary:alcohol,Uridine-5'-(tetrahydrogentriphosphate) (UTP),26:0,amine_secondary:alcohol,26(amine_secondary) > 0(alcohol)
O=C1N=CN=C2NNC=C12,9.11,6:7,amine_secondary:amine_secondary,"1,2-Diazolo[3,4-d]-1,3-diazine-4-one (Allopurinol)",6:7,amine_secondary:amine_secondary,6(amine_secondary) > 7(amine_secondary)
O=C1N=CN=C2NNC=C12,1.4,6:7,amine_secondary:amine_secondary,"1,2-Diazolo[3,4-d]-1,3-diazine-4-one (Allopurinol)",6:7,amine_secondary:amine_secondary,6(amine_secondary) > 7(amine_secondary)
[nH]1cnc2ncncc12,8.66,1:5,amine_secondary:heterocyclic_nitrogen,"7-H-1,3-Diazolo[4,5-d]-1,3-diazine (Purine)",1:5,amine_secondary:heterocyclic_nitrogen,1(amine_secondary) > 5(heterocyclic_nitrogen)
[nH]1cnc2ncncc12,2.41,1:5,amine_secondary:heterocyclic_nitrogen,"7-H-1,3-Diazolo[4,5-d]-1,3-diazine (Purine)",1:5,amine_secondary:heterocyclic_nitrogen,1(amine_secondary) > 5(heterocyclic_nitrogen)
O=C1NC=Nc2nc[nH]c12,8.68,8:2,amine_secondary:amine_secondary,6-Oxopurine (Hypoxanthine),8:2,amine_secondary:amine_secondary,8(amine_secondary) > 2(amine_secondary)
O=C1NC=Nc2nc[nH]c12,8.47,8:2,amine_secondary:amine_secondary,6-Oxopurine (Hypoxanthine),8:2,amine_secondary:amine_secondary,8(amine_secondary) > 2(amine_secondary)
O=C1NC=Nc2nc[nH]c12,8.85,8:2,amine_secondary:amine_secondary,6-Oxopurine (Hypoxanthine),8:2,amine_secondary:amine_secondary,8(amine_secondary) > 2(amine_secondary)
O=C1NC=Nc2nc[nH]c12,2.12,8:2,amine_secondary:amine_secondary,6-Oxopurine (Hypoxanthine),8:2,amine_secondary:amine_secondary,8(amine_secondary) > 2(amine_secondary)
O=C1NC=Nc2nc[nH]c12,2.05,8:2,amine_secondary:amine_secondary,6-Oxopurine (Hypoxanthine),8:2,amine_secondary:amine_secondary,8(amine_secondary) > 2(amine_secondary)
O=C1NC=Nc2nc[nH]c12,1.9,8:2,amine_secondary:amine_secondary,6-Oxopurine (Hypoxanthine),8:2,amine_secondary:amine_secondary,8(amine_secondary) > 2(amine_secondary)
Sc1ncnc2nc[nH]c12,9.1,2:4,pyridine_nitrogen:pyridine_nitrogen,6-Mercaptopurine,2:4,pyridine_nitrogen:pyridine_nitrogen,2(pyridine_nitrogen) > 4(pyridine_nitrogen)
Sc1ncnc2nc[nH]c12,6.9,2:4,pyridine_nitrogen:pyridine_nitrogen,6-Mercaptopurine,2:4,pyridine_nitrogen:pyridine_nitrogen,2(pyridine_nitrogen) > 4(pyridine_nitrogen)
Sc1ncnc2nc[nH]c12,2.2,2:4,pyridine_nitrogen:pyridine_nitrogen,6-Mercaptopurine,2:4,pyridine_nitrogen:pyridine_nitrogen,2(pyridine_nitrogen) > 4(pyridine_nitrogen)
Nc1nc(S)c2[nH]cnc2n1,9.8,0:6:4,aniline:amine_secondary:thiol,2-Amino-6-mercaptopurine,4:6:0,thiol:amine_secondary:aniline,4(thiol) > 6(amine_secondary) > 0(aniline)
Nc1nc(S)c2[nH]cnc2n1,7.9,0:6:4,aniline:amine_secondary:thiol,2-Amino-6-mercaptopurine,4:6:0,thiol:amine_secondary:aniline,4(thiol) > 6(amine_secondary) > 0(aniline)
Nc1nc(S)c2[nH]cnc2n1,3.2,0:6:4,aniline:amine_secondary:thiol,2-Amino-6-mercaptopurine,4:6:0,thiol:amine_secondary:aniline,4(thiol) > 6(amine_secondary) > 0(aniline)
Nc1nc(S)nc2nc[nH]c12,9.6,0:9:4,aniline:amine_secondary:thiol,6-Amino-2-mercaptopurine,4:9:0,thiol:amine_secondary:aniline,4(thiol) > 9(amine_secondary) > 0(aniline)
Nc1nc(S)nc2nc[nH]c12,7.7,0:9:4,aniline:amine_secondary:thiol,6-Amino-2-mercaptopurine,4:9:0,thiol:amine_secondary:aniline,4(thiol) > 9(amine_secondary) > 0(aniline)
Nc1nc(S)nc2nc[nH]c12,3.8,0:9:4,aniline:amine_secondary:thiol,6-Amino-2-mercaptopurine,4:9:0,thiol:amine_secondary:aniline,4(thiol) > 9(amine_secondary) > 0(aniline)
Nc1nc(N)c2[nH]cnc2n1,10.37,6:0,amine_secondary:aniline,"2,6-Diaminopurine",6:0,amine_secondary:aniline,6(amine_secondary) > 0(aniline)
Nc1nc(N)c2[nH]cnc2n1,10.27,6:0,amine_secondary:aniline,"2,6-Diaminopurine",6:0,amine_secondary:aniline,6(amine_secondary) > 0(aniline)
Nc1nc(N)c2[nH]cnc2n1,4.89,6:0,amine_secondary:aniline,"2,6-Diaminopurine",6:0,amine_secondary:aniline,6(amine_secondary) > 0(aniline)
Nc1nc(N)c2[nH]cnc2n1,5.04,6:0,amine_secondary:aniline,"2,6-Diaminopurine",6:0,amine_secondary:aniline,6(amine_secondary) > 0(aniline)
OC[C@H]1O[C@H]([C@H](O)[C@@H]1O)n2cnc3c(O)ncnc23,8.7,15:17,pyridine_nitrogen:pyridine_nitrogen,9-(beta-D-Ribofuranosyl)hypoxanthine (Inosine),15:17,pyridine_nitrogen:pyridine_nitrogen,15(pyridine_nitrogen) > 17(pyridine_nitrogen)
OC[C@H]1O[C@H]([C@H](O)[C@@H]1O)n2cnc3c(O)ncnc23,8.45,15:17,pyridine_nitrogen:pyridine_nitrogen,9-(beta-D-Ribofuranosyl)hypoxanthine (Inosine),15:17,pyridine_nitrogen:pyridine_nitrogen,15(pyridine_nitrogen) > 17(pyridine_nitrogen)
OC[C@H]1O[C@H]([C@H](O)[C@@H]1O)n2cnc3c(O)ncnc23,8.96,15:17,pyridine_nitrogen:pyridine_nitrogen,9-(beta-D-Ribofuranosyl)hypoxanthine (Inosine),15:17,pyridine_nitrogen:pyridine_nitrogen,15(pyridine_nitrogen) > 17(pyridine_nitrogen)
OC[C@H]1O[C@H]([C@H](O)[C@@H]1O)n2cnc3c(O)ncnc23,1.2,15:17,pyridine_nitrogen:pyridine_nitrogen,9-(beta-D-Ribofuranosyl)hypoxanthine (Inosine),15:17,pyridine_nitrogen:pyridine_nitrogen,15(pyridine_nitrogen) > 17(pyridine_nitrogen)
OC[C@H]1O[C@H]([C@H](O)[C@@H]1O)n2cnc3c(O)ncnc23,1.0,15:17,pyridine_nitrogen:pyridine_nitrogen,9-(beta-D-Ribofuranosyl)hypoxanthine (Inosine),15:17,pyridine_nitrogen:pyridine_nitrogen,15(pyridine_nitrogen) > 17(pyridine_nitrogen)
OC[C@H]1O[C@H]([C@H](O)[C@@H]1O)n2cnc3C(=O)NC(=O)Nc23,5.47,15:18,amine_secondary:amine_secondary,9-(beta-D-Ribofuranosyl)xanthine (Xanthosine),15:18,amine_secondary:amine_secondary,15(amine_secondary) > 18(amine_secondary)
OC[C@H]1O[C@H]([C@H](O)[C@@H]1O)n2cnc3C(=O)NC(=O)Nc23,5.673,15:18,amine_secondary:amine_secondary,9-(beta-D-Ribofuranosyl)xanthine (Xanthosine),15:18,amine_secondary:amine_secondary,15(amine_secondary) > 18(amine_secondary)
OC[C@H]1O[C@H]([C@H](O)[C@@H]1O)n2cnc3C(=O)NC(=O)Nc23,0.7,15:18,amine_secondary:amine_secondary,9-(beta-D-Ribofuranosyl)xanthine (Xanthosine),15:18,amine_secondary:amine_secondary,15(amine_secondary) > 18(amine_secondary)
OC[C@H]1O[C@H]([C@H](O)[C@@H]1O)n2cnc3C(=O)NC(=O)Nc23,1.68,15:18,amine_secondary:amine_secondary,9-(beta-D-Ribofuranosyl)xanthine (Xanthosine),15:18,amine_secondary:amine_secondary,15(amine_secondary) > 18(amine_secondary)
NC1=Nc2n(cnc2C(=O)N1)[C@H]3C[C@H](O)[C@@H](CO)O3,9.11,0:10,aniline:amine_secondary,2'-Deoxyguanosine,10:0,amine_secondary:aniline,10(amine_secondary) > 0(aniline)
NC1=Nc2n(cnc2C(=O)N1)[C@H]3C[C@H](O)[C@@H](CO)O3,2.12,0:10,aniline:amine_secondary,2'-Deoxyguanosine,10:0,amine_secondary:aniline,10(amine_secondary) > 0(aniline)
NC1=Nc2n(cnc2C(=O)N1)[C@@H]3O[C@H](CO)[C@@H](O)[C@H]3O,9.22,0:10,aniline:amine_secondary,9-(beta-D-Ribofuranosyl)guanine (Guanosine),10:0,amine_secondary:aniline,10(amine_secondary) > 0(aniline)
NC1=Nc2n(cnc2C(=O)N1)[C@@H]3O[C@H](CO)[C@@H](O)[C@H]3O,8.98,0:10,aniline:amine_secondary,9-(beta-D-Ribofuranosyl)guanine (Guanosine),10:0,amine_secondary:aniline,10(amine_secondary) > 0(aniline)
NC1=Nc2n(cnc2C(=O)N1)[C@@H]3O[C@H](CO)[C@@H](O)[C@H]3O,9.14,0:10,aniline:amine_secondary,9-(beta-D-Ribofuranosyl)guanine (Guanosine),10:0,amine_secondary:aniline,10(amine_secondary) > 0(aniline)
NC1=Nc2n(cnc2C(=O)N1)[C@@H]3O[C@H](CO)[C@@H](O)[C@H]3O,9.26,0:10,aniline:amine_secondary,9-(beta-D-Ribofuranosyl)guanine (Guanosine),10:0,amine_secondary:aniline,10(amine_secondary) > 0(aniline)
NC1=Nc2n(cnc2C(=O)N1)[C@@H]3O[C@H](CO)[C@@H](O)[C@H]3O,2.16,0:10,aniline:amine_secondary,9-(beta-D-Ribofuranosyl)guanine (Guanosine),10:0,amine_secondary:aniline,10(amine_secondary) > 0(aniline)
NC1=Nc2n(cnc2C(=O)N1)[C@@H]3O[C@H](CO)[C@@H](O)[C@H]3O,2.08,0:10,aniline:amine_secondary,9-(beta-D-Ribofuranosyl)guanine (Guanosine),10:0,amine_secondary:aniline,10(amine_secondary) > 0(aniline)
NC1=Nc2n(cnc2C(=O)N1)[C@@H]3O[C@H](CO)[C@@H](O)[C@H]3O,2.25,0:10,aniline:amine_secondary,9-(beta-D-Ribofuranosyl)guanine (Guanosine),10:0,amine_secondary:aniline,10(amine_secondary) > 0(aniline)
NC1=Nc2n(cnc2C(=O)N1)[C@@H]3O[C@H](CO)[C@@H](O)[C@H]3O,1.92,0:10,aniline:amine_secondary,9-(beta-D-Ribofuranosyl)guanine (Guanosine),10:0,amine_secondary:aniline,10(amine_secondary) > 0(aniline)
Nc1ncnc2nn[nH]c12,6.09,2:4,pyridine_nitrogen:pyridine_nitrogen,"6-Amino-1,2,3-triazolo[4,5-d]-1,3-diazine (8-Azaadenine)",2:4,pyridine_nitrogen:pyridine_nitrogen,2(pyridine_nitrogen) > 4(pyridine_nitrogen)
Nc1ncnc2nn[nH]c12,5.99,2:4,pyridine_nitrogen:pyridine_nitrogen,"6-Amino-1,2,3-triazolo[4,5-d]-1,3-diazine (8-Azaadenine)",2:4,pyridine_nitrogen:pyridine_nitrogen,2(pyridine_nitrogen) > 4(pyridine_nitrogen)
Nc1ncnc2nn[nH]c12,2.76,2:4,pyridine_nitrogen:pyridine_nitrogen,"6-Amino-1,2,3-triazolo[4,5-d]-1,3-diazine (8-Azaadenine)",2:4,pyridine_nitrogen:pyridine_nitrogen,2(pyridine_nitrogen) > 4(pyridine_nitrogen)
Nc1ncnc2nn[nH]c12,2.73,2:4,pyridine_nitrogen:pyridine_nitrogen,"6-Amino-1,2,3-triazolo[4,5-d]-1,3-diazine (8-Azaadenine)",2:4,pyridine_nitrogen:pyridine_nitrogen,2(pyridine_nitrogen) > 4(pyridine_nitrogen)
Nc1ncnc2n(cnc12)C3OC(CO[P](O)(=O)O[P](O)(O)=O)C(O)C3O,6.3,0:24:26,amine_primary:alcohol:alcohol,Adenosine-5'-(trihydrogendiphosphate) (ADP),0:24:26,amine_primary:alcohol:alcohol,0(amine_primary) > 24(alcohol) > 26(alcohol)
Nc1ncnc2n(cnc12)C3OC(CO[P](O)(=O)O[P](O)(O)=O)C(O)C3O,6.38,0:24:26,amine_primary:alcohol:alcohol,Adenosine-5'-(trihydrogendiphosphate) (ADP),0:24:26,amine_primary:alcohol:alcohol,0(amine_primary) > 24(alcohol) > 26(alcohol)
Nc1ncnc2n(cnc12)C3OC(CO[P](O)(=O)O[P](O)(O)=O)C(O)C3O,6.55,0:24:26,amine_primary:alcohol:alcohol,Adenosine-5'-(trihydrogendiphosphate) (ADP),0:24:26,amine_primary:alcohol:alcohol,0(amine_primary) > 24(alcohol) > 26(alcohol)
Nc1ncnc2n(cnc12)C3OC(CO[P](O)(=O)O[P](O)(O)=O)C(O)C3O,6.6,0:24:26,amine_primary:alcohol:alcohol,Adenosine-5'-(trihydrogendiphosphate) (ADP),0:24:26,amine_primary:alcohol:alcohol,0(amine_primary) > 24(alcohol) > 26(alcohol)
Nc1ncnc2n(cnc12)C3OC(CO[P](O)(=O)O[P](O)(O)=O)C(O)C3O,6.65,0:24:26,amine_primary:alcohol:alcohol,Adenosine-5'-(trihydrogendiphosphate) (ADP),0:24:26,amine_primary:alcohol:alcohol,0(amine_primary) > 24(alcohol) > 26(alcohol)
Nc1ncnc2n(cnc12)C3OC(CO[P](O)(=O)O[P](O)(O)=O)C(O)C3O,6.32,0:24:26,amine_primary:alcohol:alcohol,Adenosine-5'-(trihydrogendiphosphate) (ADP),0:24:26,amine_primary:alcohol:alcohol,0(amine_primary) > 24(alcohol) > 26(alcohol)
Nc1ncnc2n(cnc12)C3OC(CO[P](O)(=O)O[P](O)(O)=O)C(O)C3O,7.2,0:24:26,amine_primary:alcohol:alcohol,Adenosine-5'-(trihydrogendiphosphate) (ADP),0:24:26,amine_primary:alcohol:alcohol,0(amine_primary) > 24(alcohol) > 26(alcohol)
Nc1ncnc2n(cnc12)C3OC(CO[P](O)(=O)O[P](O)(O)=O)C(O)C3O,7.44,0:24:26,amine_primary:alcohol:alcohol,Adenosine-5'-(trihydrogendiphosphate) (ADP),0:24:26,amine_primary:alcohol:alcohol,0(amine_primary) > 24(alcohol) > 26(alcohol)
Nc1ncnc2n(cnc12)C3OC(CO[P](O)(=O)O[P](O)(O)=O)C(O)C3O,3.87,0:24:26,amine_primary:alcohol:alcohol,Adenosine-5'-(trihydrogendiphosphate) (ADP),0:24:26,amine_primary:alcohol:alcohol,0(amine_primary) > 24(alcohol) > 26(alcohol)
Nc1ncnc2n(cnc12)C3OC(CO[P](O)(=O)O[P](O)(O)=O)C(O)C3O,3.76,0:24:26,amine_primary:alcohol:alcohol,Adenosine-5'-(trihydrogendiphosphate) (ADP),0:24:26,amine_primary:alcohol:alcohol,0(amine_primary) > 24(alcohol) > 26(alcohol)
Nc1ncnc2n(cnc12)C3OC(CO[P](O)(=O)O[P](O)(O)=O)C(O)C3O,3.88,0:24:26,amine_primary:alcohol:alcohol,Adenosine-5'-(trihydrogendiphosphate) (ADP),0:24:26,amine_primary:alcohol:alcohol,0(amine_primary) > 24(alcohol) > 26(alcohol)
Nc1ncnc2n(cnc12)C3OC(CO[P](O)(=O)O[P](O)(O)=O)C(O)C3O,3.89,0:24:26,amine_primary:alcohol:alcohol,Adenosine-5'-(trihydrogendiphosphate) (ADP),0:24:26,amine_primary:alcohol:alcohol,0(amine_primary) > 24(alcohol) > 26(alcohol)
Nc1ncnc2n(cnc12)C3OC(CO[P](O)(=O)O[P](O)(O)=O)C(O)C3O,3.9,0:24:26,amine_primary:alcohol:alcohol,Adenosine-5'-(trihydrogendiphosphate) (ADP),0:24:26,amine_primary:alcohol:alcohol,0(amine_primary) > 24(alcohol) > 26(alcohol)
Nc1ncnc2n(cnc12)C3OC(CO[P](O)(=O)O[P](O)(O)=O)C(O)C3O,4.2,0:24:26,amine_primary:alcohol:alcohol,Adenosine-5'-(trihydrogendiphosphate) (ADP),0:24:26,amine_primary:alcohol:alcohol,0(amine_primary) > 24(alcohol) > 26(alcohol)
Nc1ncnc2n(cnc12)C3OC(CO[P](O)(=O)O[P](O)(O)=O)C(O)C3O,3.79,0:24:26,amine_primary:alcohol:alcohol,Adenosine-5'-(trihydrogendiphosphate) (ADP),0:24:26,amine_primary:alcohol:alcohol,0(amine_primary) > 24(alcohol) > 26(alcohol)
Nc1ncnc2n(cnc12)C3OC(CO[P](O)(=O)O[P](O)(O)=O)C(O)C3O,1.8,0:24:26,amine_primary:alcohol:alcohol,Adenosine-5'-(trihydrogendiphosphate) (ADP),0:24:26,amine_primary:alcohol:alcohol,0(amine_primary) > 24(alcohol) > 26(alcohol)
Nc1ncnc2n(cnc12)C3OC(CO[P](O)(=O)O[P](O)(O)=O)C(O)C3O,2.16,0:24:26,amine_primary:alcohol:alcohol,Adenosine-5'-(trihydrogendiphosphate) (ADP),0:24:26,amine_primary:alcohol:alcohol,0(amine_primary) > 24(alcohol) > 26(alcohol)
NC1=NC(=O)c2ncn(C3OC(CO[P](O)(=O)O[P](O)(O)=O)C(O)C3O)c2N1,6.3,2:27,pyridine_nitrogen:pyridine_nitrogen,Guanosine-5'-(trihydrogendiphosphate) (GDP),2:27,pyridine_nitrogen:pyridine_nitrogen,2(pyridine_nitrogen) > 27(pyridine_nitrogen)
NC1=NC(=O)c2ncn(C3OC(CO[P](O)(=O)O[P](O)(O)=O)C(O)C3O)c2N1,6.71,2:27,pyridine_nitrogen:pyridine_nitrogen,Guanosine-5'-(trihydrogendiphosphate) (GDP),2:27,pyridine_nitrogen:pyridine_nitrogen,2(pyridine_nitrogen) > 27(pyridine_nitrogen)