SMILES,pKa,Dissociable_Atoms,Functional_Group,Name
Cc1cccc(C(O)=O)c1O,14.8,10:7,phenol:carboxylic_acid,2-Hydroxy-3-methylbenzoic acid (3-Methylsalicylic acid)(o-Cresotic acid)
Cc1cccc(C(O)=O)c1O,2.83,10:7,phenol:carboxylic_acid,2-Hydroxy-3-methylbenzoic acid (3-Methylsalicylic acid)(o-Cresotic acid)
Cc1cccc(C(O)=O)c1O,3.0,10:7,phenol:carboxylic_acid,2-Hydroxy-3-methylbenzoic acid (3-Methylsalicylic acid)(o-Cresotic acid)
Cc1ccc(C(O)=O)c(O)c1,14.1,9:6,phenol:carboxylic_acid,2-Hydroxy-4-methylbenzoic acid (4-Methylsalicylic acid)(m-Cresotic acid)
Cc1ccc(C(O)=O)c(O)c1,2.96,9:6,phenol:carboxylic_acid,2-Hydroxy-4-methylbenzoic acid (4-Methylsalicylic acid)(m-Cresotic acid)
Cc1ccc(C(O)=O)c(O)c1,3.15,9:6,phenol:carboxylic_acid,2-Hydroxy-4-methylbenzoic acid (4-Methylsalicylic acid)(m-Cresotic acid)
Cc1ccc(O)c(c1)C(O)=O,14.3,5:9,phenol:carboxylic_acid,2-Hydroxy-5-methylbenzoic acid (5-Methylsalicylic acid)(p-Cresotic acid)
Cc1ccc(O)c(c1)C(O)=O,2.88,5:9,phenol:carboxylic_acid,2-Hydroxy-5-methylbenzoic acid (5-Methylsalicylic acid)(p-Cresotic acid)
Cc1ccc(O)c(c1)C(O)=O,3.03,5:9,phenol:carboxylic_acid,2-Hydroxy-5-methylbenzoic acid (5-Methylsalicylic acid)(p-Cresotic acid)
Cc1cccc(O)c1C(O)=O,3.16,6:9,phenol:carboxylic_acid,2-Hydroxy-6-methylbenzoic acid (6-Methylsalicylic acid)
Cc1cccc(O)c1C(O)=O,3.32,6:9,phenol:carboxylic_acid,2-Hydroxy-6-methylbenzoic acid (6-Methylsalicylic acid)
CC(C)c1cccc(C(O)=O)c1O,2.76,12:9,phenol:carboxylic_acid,2-Hydroxy-3-(2-propyl)benzoic acid (3-Isopropylsalicylic acid)
OC(=O)c1cc(F)ccc1O,13.7,10:0,phenol:carboxylic_acid,5-Fluoro-2-hydroxybenzoic acid (5-Fluorosalicylic acid)
OC(=O)c1cc(F)ccc1O,2.56,10:0,phenol:carboxylic_acid,5-Fluoro-2-hydroxybenzoic acid (5-Fluorosalicylic acid)
OC(=O)c1cc(Br)ccc1O,12.5,10:0,phenol:carboxylic_acid,5-Bromo-2-hydroxybenzoic acid (5-Bromosalicylic acid)
OC(=O)c1cc(Br)ccc1O,12.84,10:0,phenol:carboxylic_acid,5-Bromo-2-hydroxybenzoic acid (5-Bromosalicylic acid)
OC(=O)c1cc(Br)ccc1O,2.44,10:0,phenol:carboxylic_acid,5-Bromo-2-hydroxybenzoic acid (5-Bromosalicylic acid)
OC(=O)c1cc(Br)ccc1O,2.653,10:0,phenol:carboxylic_acid,5-Bromo-2-hydroxybenzoic acid (5-Bromosalicylic acid)
OC(=O)c1cc(I)ccc1O,12.4,10:0,phenol:carboxylic_acid,2-Hydroxy-5-iodobenzoic acid (5-Iodosalicylic acid)
OC(=O)c1cc(I)ccc1O,12.79,10:0,phenol:carboxylic_acid,2-Hydroxy-5-iodobenzoic acid (5-Iodosalicylic acid)
OC(=O)c1cc(I)ccc1O,2.54,10:0,phenol:carboxylic_acid,2-Hydroxy-5-iodobenzoic acid (5-Iodosalicylic acid)
OC(=O)c1cc(I)ccc1O,2.622,10:0,phenol:carboxylic_acid,2-Hydroxy-5-iodobenzoic acid (5-Iodosalicylic acid)
OC(=O)c1cccc(c1O)[N+]([O-])=O,9.87,9:0,phenol:carboxylic_acid,2-Hydroxy-3-nitrobenzoic acid (3-Nitrosalicylic acid)
OC(=O)c1cccc(c1O)[N+]([O-])=O,10.328,9:0,phenol:carboxylic_acid,2-Hydroxy-3-nitrobenzoic acid (3-Nitrosalicylic acid)
OC(=O)c1cccc(c1O)[N+]([O-])=O,1.73,9:0,phenol:carboxylic_acid,2-Hydroxy-3-nitrobenzoic acid (3-Nitrosalicylic acid)
OC(=O)c1cccc(c1O)[N+]([O-])=O,1.76,9:0,phenol:carboxylic_acid,2-Hydroxy-3-nitrobenzoic acid (3-Nitrosalicylic acid)
OC(=O)c1cccc(c1O)[N+]([O-])=O,1.873,9:0,phenol:carboxylic_acid,2-Hydroxy-3-nitrobenzoic acid (3-Nitrosalicylic acid)
OC(=O)c1ccc(cc1O)[N+]([O-])=O,10.91,9:0,phenol:carboxylic_acid,2-Hydroxy-4-nitrobenzoic acid (4-Nitrosalicylic acid)
OC(=O)c1ccc(cc1O)[N+]([O-])=O,2.05,9:0,phenol:carboxylic_acid,2-Hydroxy-4-nitrobenzoic acid (4-Nitrosalicylic acid)
OC(=O)c1ccc(cc1O)[N+]([O-])=O,2.231,9:0,phenol:carboxylic_acid,2-Hydroxy-4-nitrobenzoic acid (4-Nitrosalicylic acid)
OC(=O)c1cc(ccc1O)[N+]([O-])=O,9.9,9:0,phenol:carboxylic_acid,2-Hydroxy-5-nitrobenzoic acid (5-Nitrosalicylic acid)
OC(=O)c1cc(ccc1O)[N+]([O-])=O,9.83,9:0,phenol:carboxylic_acid,2-Hydroxy-5-nitrobenzoic acid (5-Nitrosalicylic acid)
OC(=O)c1cc(ccc1O)[N+]([O-])=O,9.73,9:0,phenol:carboxylic_acid,2-Hydroxy-5-nitrobenzoic acid (5-Nitrosalicylic acid)
OC(=O)c1cc(ccc1O)[N+]([O-])=O,10.341,9:0,phenol:carboxylic_acid,2-Hydroxy-5-nitrobenzoic acid (5-Nitrosalicylic acid)
OC(=O)c1cc(ccc1O)[N+]([O-])=O,1.94,9:0,phenol:carboxylic_acid,2-Hydroxy-5-nitrobenzoic acid (5-Nitrosalicylic acid)
OC(=O)c1cc(ccc1O)[N+]([O-])=O,1.91,9:0,phenol:carboxylic_acid,2-Hydroxy-5-nitrobenzoic acid (5-Nitrosalicylic acid)
OC(=O)c1cc(ccc1O)[N+]([O-])=O,2.114,9:0,phenol:carboxylic_acid,2-Hydroxy-5-nitrobenzoic acid (5-Nitrosalicylic acid)
OC(=O)c1c(O)cccc1[N+]([O-])=O,9.04,5:0,phenol:carboxylic_acid,2-Hydroxy-6-nitrobenzoic acid (6-Nitrosalicylic acid)
OC(=O)c1c(O)cccc1[N+]([O-])=O,1.99,5:0,phenol:carboxylic_acid,2-Hydroxy-6-nitrobenzoic acid (6-Nitrosalicylic acid)
OC(=O)c1c(O)cccc1[N+]([O-])=O,2.236,5:0,phenol:carboxylic_acid,2-Hydroxy-6-nitrobenzoic acid (6-Nitrosalicylic acid)
OC(=O)c1cc(cc(c1O)[N+]([O-])=O)[N+]([O-])=O,7.07,9:0,phenol:carboxylic_acid,"2-Hydroxy-3,5-dinitrobenzoic acid (3,5-Dinitrosalicylic acid)"
OC(=O)c1cc(cc(c1O)[N+]([O-])=O)[N+]([O-])=O,7.04,9:0,phenol:carboxylic_acid,"2-Hydroxy-3,5-dinitrobenzoic acid (3,5-Dinitrosalicylic acid)"
OC(=O)c1cc(cc(c1O)[N+]([O-])=O)[N+]([O-])=O,7.38,9:0,phenol:carboxylic_acid,"2-Hydroxy-3,5-dinitrobenzoic acid (3,5-Dinitrosalicylic acid)"
OC(=O)c1cc(cc(c1O)[N+]([O-])=O)[N+]([O-])=O,0.3,9:0,phenol:carboxylic_acid,"2-Hydroxy-3,5-dinitrobenzoic acid (3,5-Dinitrosalicylic acid)"
OC(=O)c1cc(cc(c1O)[N+]([O-])=O)[N+]([O-])=O,0.4,9:0,phenol:carboxylic_acid,"2-Hydroxy-3,5-dinitrobenzoic acid (3,5-Dinitrosalicylic acid)"
OC(=O)c1cc(cc(c1O)[N+]([O-])=O)[N+]([O-])=O,0.5,9:0,phenol:carboxylic_acid,"2-Hydroxy-3,5-dinitrobenzoic acid (3,5-Dinitrosalicylic acid)"
OC(=O)c1cc(ccc1O)[S](O)(=O)=O,11.85,9:0,phenol:carboxylic_acid,2-Hydroxy-5-sulfobenzoic acid (5-Sulfosalicylic acid)
OC(=O)c1cc(ccc1O)[S](O)(=O)=O,11.53,9:0,phenol:carboxylic_acid,2-Hydroxy-5-sulfobenzoic acid (5-Sulfosalicylic acid)
OC(=O)c1cc(ccc1O)[S](O)(=O)=O,11.48,9:0,phenol:carboxylic_acid,2-Hydroxy-5-sulfobenzoic acid (5-Sulfosalicylic acid)
OC(=O)c1cc(ccc1O)[S](O)(=O)=O,11.54,9:0,phenol:carboxylic_acid,2-Hydroxy-5-sulfobenzoic acid (5-Sulfosalicylic acid)
OC(=O)c1cc(ccc1O)[S](O)(=O)=O,11.72,9:0,phenol:carboxylic_acid,2-Hydroxy-5-sulfobenzoic acid (5-Sulfosalicylic acid)
OC(=O)c1cc(ccc1O)[S](O)(=O)=O,12.53,9:0,phenol:carboxylic_acid,2-Hydroxy-5-sulfobenzoic acid (5-Sulfosalicylic acid)
OC(=O)c1cc(ccc1O)[S](O)(=O)=O,2.48,9:0,phenol:carboxylic_acid,2-Hydroxy-5-sulfobenzoic acid (5-Sulfosalicylic acid)
OC(=O)c1cc(ccc1O)[S](O)(=O)=O,2.34,9:0,phenol:carboxylic_acid,2-Hydroxy-5-sulfobenzoic acid (5-Sulfosalicylic acid)
OC(=O)c1cc(ccc1O)[S](O)(=O)=O,2.32,9:0,phenol:carboxylic_acid,2-Hydroxy-5-sulfobenzoic acid (5-Sulfosalicylic acid)
OC(=O)c1cc(ccc1O)[S](O)(=O)=O,2.45,9:0,phenol:carboxylic_acid,2-Hydroxy-5-sulfobenzoic acid (5-Sulfosalicylic acid)
OC(=O)c1cc(ccc1O)[S](O)(=O)=O,2.63,9:0,phenol:carboxylic_acid,2-Hydroxy-5-sulfobenzoic acid (5-Sulfosalicylic acid)
OC(=O)c1cc(ccc1O)[S](O)(=O)=O,2.84,9:0,phenol:carboxylic_acid,2-Hydroxy-5-sulfobenzoic acid (5-Sulfosalicylic acid)
OC(=O)c1cc(cc(Br)c1O)[S](O)(=O)=O,10.52,10:0,phenol:carboxylic_acid,3-Bromo-2-hydroxy-5-sulfobenzoic acid (3-Bromo-5-sulfosalicylic acid)
OC(=O)c1cc(cc(Br)c1O)[S](O)(=O)=O,10.47,10:0,phenol:carboxylic_acid,3-Bromo-2-hydroxy-5-sulfobenzoic acid (3-Bromo-5-sulfosalicylic acid)
OC(=O)c1cc(cc(Br)c1O)[S](O)(=O)=O,2.02,10:0,phenol:carboxylic_acid,3-Bromo-2-hydroxy-5-sulfobenzoic acid (3-Bromo-5-sulfosalicylic acid)
OC(=O)c1cc(cc(Br)c1O)[S](O)(=O)=O,2.03,10:0,phenol:carboxylic_acid,3-Bromo-2-hydroxy-5-sulfobenzoic acid (3-Bromo-5-sulfosalicylic acid)
OC(=O)c1cc(ccc1O)N=Nc2ccc(cc2)[S](O)(=O)=O,11.04,9:0,phenol:carboxylic_acid,2-Hydroxy-5-(4-sulfophenylazo)benzoic acid (3-Carboxy-4-hydroxy-4'-sulfoazobenzene)
OC(=O)c1cc(ccc1O)N=Nc2ccc(cc2)[S](O)(=O)=O,2.38,9:0,phenol:carboxylic_acid,2-Hydroxy-5-(4-sulfophenylazo)benzoic acid (3-Carboxy-4-hydroxy-4'-sulfoazobenzene)
OC(=O)c1cc(cc(c1O)[S](O)(=O)=O)[S](O)(=O)=O,11.55,9:0,phenol:carboxylic_acid,"2-Hydroxy-3,5-disulfobenzoic acid (3,5-Disulfosalicylic acid)"
OC(=O)c1cc(cc(c1O)[S](O)(=O)=O)[S](O)(=O)=O,11.07,9:0,phenol:carboxylic_acid,"2-Hydroxy-3,5-disulfobenzoic acid (3,5-Disulfosalicylic acid)"
OC(=O)c1cc(cc(c1O)[S](O)(=O)=O)[S](O)(=O)=O,10.95,9:0,phenol:carboxylic_acid,"2-Hydroxy-3,5-disulfobenzoic acid (3,5-Disulfosalicylic acid)"
OC(=O)c1cc(cc(c1O)[S](O)(=O)=O)[S](O)(=O)=O,12.5,9:0,phenol:carboxylic_acid,"2-Hydroxy-3,5-disulfobenzoic acid (3,5-Disulfosalicylic acid)"
OC(=O)c1cc(cc(c1O)[S](O)(=O)=O)[S](O)(=O)=O,2.03,9:0,phenol:carboxylic_acid,"2-Hydroxy-3,5-disulfobenzoic acid (3,5-Disulfosalicylic acid)"
OC(=O)c1cc(cc(c1O)[S](O)(=O)=O)[S](O)(=O)=O,1.7,9:0,phenol:carboxylic_acid,"2-Hydroxy-3,5-disulfobenzoic acid (3,5-Disulfosalicylic acid)"
OC(=O)c1cc(cc(c1O)[S](O)(=O)=O)[S](O)(=O)=O,2.69,9:0,phenol:carboxylic_acid,"2-Hydroxy-3,5-disulfobenzoic acid (3,5-Disulfosalicylic acid)"
COc1cccc(C(O)=O)c1O,13.95,11:8,phenol:carboxylic_acid,2-Hydroxy-3-methoxybenzoic acid (3-Methoxysalicylic acid)
COc1cccc(C(O)=O)c1O,2.69,11:8,phenol:carboxylic_acid,2-Hydroxy-3-methoxybenzoic acid (3-Methoxysalicylic acid)
COc1ccc(O)c(c1)C(O)=O,13.85,6:10,phenol:carboxylic_acid,2-Hydroxy-5-methoxybenzoic acid (5-Methoxysalicylic acid)
COc1ccc(O)c(c1)C(O)=O,2.92,6:10,phenol:carboxylic_acid,2-Hydroxy-5-methoxybenzoic acid (5-Methoxysalicylic acid)
OC(=O)c1cc(ccc1O)C#N,11.3,9:0,phenol:carboxylic_acid,2-Hydroxy-5-cyanobenzoic acid (5-Cyanosalicylic acid)
OC(=O)c1cc(ccc1O)C#N,2.36,9:0,phenol:carboxylic_acid,2-Hydroxy-5-cyanobenzoic acid (5-Cyanosalicylic acid)
Nc1ccc(C(O)=O)c(O)c1,13.7,9:0:6,phenol:aniline:carboxylic_acid,4-Amino-2-hydroxybenzoic acid (p-Aminosalicylic acid)
Nc1ccc(C(O)=O)c(O)c1,3.63,9:0:6,phenol:aniline:carboxylic_acid,4-Amino-2-hydroxybenzoic acid (p-Aminosalicylic acid)
Nc1ccc(C(O)=O)c(O)c1,3.66,9:0:6,phenol:aniline:carboxylic_acid,4-Amino-2-hydroxybenzoic acid (p-Aminosalicylic acid)
Nc1ccc(C(O)=O)c(O)c1,3.68,9:0:6,phenol:aniline:carboxylic_acid,4-Amino-2-hydroxybenzoic acid (p-Aminosalicylic acid)
Nc1ccc(C(O)=O)c(O)c1,4.08,9:0:6,phenol:aniline:carboxylic_acid,4-Amino-2-hydroxybenzoic acid (p-Aminosalicylic acid)
Nc1ccc(C(O)=O)c(O)c1,1.8,9:0:6,phenol:aniline:carboxylic_acid,4-Amino-2-hydroxybenzoic acid (p-Aminosalicylic acid)
Nc1ccc(C(O)=O)c(O)c1,2.05,9:0:6,phenol:aniline:carboxylic_acid,4-Amino-2-hydroxybenzoic acid (p-Aminosalicylic acid)
Nc1ccc(C(O)=O)c(O)c1,2.0,9:0:6,phenol:aniline:carboxylic_acid,4-Amino-2-hydroxybenzoic acid (p-Aminosalicylic acid)
Nc1ccc(C(O)=O)c(O)c1,2.08,9:0:6,phenol:aniline:carboxylic_acid,4-Amino-2-hydroxybenzoic acid (p-Aminosalicylic acid)
Nc1cccc(C(O)=O)c1O,12.54,10:0:7,phenol:aniline:carboxylic_acid,5-Amino-2-hydroxybenzoic acid (m-Aminosalicylic acid)
Nc1cccc(C(O)=O)c1O,11.54,10:0:7,phenol:aniline:carboxylic_acid,5-Amino-2-hydroxybenzoic acid (m-Aminosalicylic acid)
Nc1cccc(C(O)=O)c1O,5.33,10:0:7,phenol:aniline:carboxylic_acid,5-Amino-2-hydroxybenzoic acid (m-Aminosalicylic acid)
Nc1cccc(C(O)=O)c1O,5.6,10:0:7,phenol:aniline:carboxylic_acid,5-Amino-2-hydroxybenzoic acid (m-Aminosalicylic acid)
Nc1cccc(C(O)=O)c1O,2.0,10:0:7,phenol:aniline:carboxylic_acid,5-Amino-2-hydroxybenzoic acid (m-Aminosalicylic acid)
Nc1cccc(C(O)=O)c1O,2.28,10:0:7,phenol:aniline:carboxylic_acid,5-Amino-2-hydroxybenzoic acid (m-Aminosalicylic acid)
OC(=O)c1cccc(C(O)=O)c1O,4.53,12:0:9,phenol:carboxylic_acid:carboxylic_acid,"2,6-Dicarboxyphenol (2-Hydroxyisophthalic acid)"
OC(=O)c1cccc(C(O)=O)c1O,2.13,12:0:9,phenol:carboxylic_acid:carboxylic_acid,"2,6-Dicarboxyphenol (2-Hydroxyisophthalic acid)"
Oc1ccc(cc1C=O)[S](O)(=O)=O,6.93,0,phenol,2-Hydroxy-5-sulfobenzaldehyde (5-Sulfosalicylaldehyde)
Oc1ccc(cc1C=O)[S](O)(=O)=O,6.76,0,phenol,2-Hydroxy-5-sulfobenzaldehyde (5-Sulfosalicylaldehyde)
Oc1ccc(cc1C=O)[S](O)(=O)=O,6.82,0,phenol,2-Hydroxy-5-sulfobenzaldehyde (5-Sulfosalicylaldehyde)
Oc1ccc(cc1C=O)[S](O)(=O)=O,6.77,0,phenol,2-Hydroxy-5-sulfobenzaldehyde (5-Sulfosalicylaldehyde)
Oc1ccc(cc1C=O)[S](O)(=O)=O,6.89,0,phenol,2-Hydroxy-5-sulfobenzaldehyde (5-Sulfosalicylaldehyde)
Oc1ccc(cc1C=O)[S](O)(=O)=O,7.15,0,phenol,2-Hydroxy-5-sulfobenzaldehyde (5-Sulfosalicylaldehyde)
Oc1ccc(cc1C=O)[S](O)(=O)=O,7.32,0,phenol,2-Hydroxy-5-sulfobenzaldehyde (5-Sulfosalicylaldehyde)
COc1cccc(C=O)c1O,7.912,10,phenol,2-Hydroxy-3-methoxybenzaldehyde (o-Vanillin)
COc1ccc(C=O)cc1O,8.889,10,phenol,3-Hydroxy-4-methoxybenzaldehyde (Isovanillin)
COc1cc(C=O)ccc1O,7.396,10,phenol,4-Hydroxy-3-methoxybenzaldehyde (Vanillin)
COC(=O)c1ccccc1O,9.75,10,phenol,2-Hydroxybenzoic acid methyl ester (Methyl salicylate)
COC(=O)c1ccccc1O,10.19,10,phenol,2-Hydroxybenzoic acid methyl ester (Methyl salicylate)
NC(=O)c1ccccc1O,8.89,9,phenol,2-Hydroxybenzoic acid amide (Salicylamide)
Nc1ccc(C(N)=O)c(O)c1,9.11,9:0,phenol:aniline,4-Amino-2-hydroxybenzoic acid amide (4-Aminosalicylamide)
Nc1ccc(C(N)=O)c(O)c1,3.0,9:0,phenol:aniline,4-Amino-2-hydroxybenzoic acid amide (4-Aminosalicylamide)
ONC(=O)c1ccccc1O,9.72,1:10,amine_secondary:phenol,2-Hydroxybenzohydroxamic acid
ONC(=O)c1ccccc1O,7.37,1:10,amine_secondary:phenol,2-Hydroxybenzohydroxamic acid
ON=Cc1ccccc1O,11.7,0:7,hydroxyl_group:phenol,2-Hydroxybenzaldehyde oxime (Salicylaldoxime)
ON=Cc1ccccc1O,11.5,0:7,hydroxyl_group:phenol,2-Hydroxybenzaldehyde oxime (Salicylaldoxime)
ON=Cc1ccccc1O,11.4,0:7,hydroxyl_group:phenol,2-Hydroxybenzaldehyde oxime (Salicylaldoxime)
ON=Cc1ccccc1O,12.1,0:7,hydroxyl_group:phenol,2-Hydroxybenzaldehyde oxime (Salicylaldoxime)
ON=Cc1ccccc1O,8.95,0:7,hydroxyl_group:phenol,2-Hydroxybenzaldehyde oxime (Salicylaldoxime)
ON=Cc1ccccc1O,8.84,0:7,hydroxyl_group:phenol,2-Hydroxybenzaldehyde oxime (Salicylaldoxime)
ON=Cc1ccccc1O,8.85,0:7,hydroxyl_group:phenol,2-Hydroxybenzaldehyde oxime (Salicylaldoxime)
ON=Cc1ccccc1O,9.18,0:7,hydroxyl_group:phenol,2-Hydroxybenzaldehyde oxime (Salicylaldoxime)
ON=Cc1ccccc1O,1.37,0:7,hydroxyl_group:phenol,2-Hydroxybenzaldehyde oxime (Salicylaldoxime)
ON=Cc1cc(ccc1O)[S](O)(=O)=O,11.4,9:0,phenol:alcohol,2-Hydroxy-5-sulfobenzaldehyde oxime (5-Sulfosalicylaldoxime)
ON=Cc1cc(ccc1O)[S](O)(=O)=O,11.2,9:0,phenol:alcohol,2-Hydroxy-5-sulfobenzaldehyde oxime (5-Sulfosalicylaldoxime)
ON=Cc1cc(ccc1O)[S](O)(=O)=O,11.3,9:0,phenol:alcohol,2-Hydroxy-5-sulfobenzaldehyde oxime (5-Sulfosalicylaldoxime)
ON=Cc1cc(ccc1O)[S](O)(=O)=O,12.0,9:0,phenol:alcohol,2-Hydroxy-5-sulfobenzaldehyde oxime (5-Sulfosalicylaldoxime)
ON=Cc1cc(ccc1O)[S](O)(=O)=O,8.03,9:0,phenol:alcohol,2-Hydroxy-5-sulfobenzaldehyde oxime (5-Sulfosalicylaldoxime)
ON=Cc1cc(ccc1O)[S](O)(=O)=O,7.93,9:0,phenol:alcohol,2-Hydroxy-5-sulfobenzaldehyde oxime (5-Sulfosalicylaldoxime)
ON=Cc1cc(ccc1O)[S](O)(=O)=O,7.98,9:0,phenol:alcohol,2-Hydroxy-5-sulfobenzaldehyde oxime (5-Sulfosalicylaldoxime)
ON=Cc1cc(ccc1O)[S](O)(=O)=O,8.2,9:0,phenol:alcohol,2-Hydroxy-5-sulfobenzaldehyde oxime (5-Sulfosalicylaldoxime)
ON=Cc1cc(ccc1O)[S](O)(=O)=O,8.42,9:0,phenol:alcohol,2-Hydroxy-5-sulfobenzaldehyde oxime (5-Sulfosalicylaldoxime)
Oc1ccccc1O,13.3,7:0,phenol:phenol,"1,2-Dihydroxybenzene (Catechol)"
Oc1ccccc1O,13.1,7:0,phenol:phenol,"1,2-Dihydroxybenzene (Catechol)"
Oc1ccccc1O,9.26,7:0,phenol:phenol,"1,2-Dihydroxybenzene (Catechol)"
Oc1ccccc1O,9.22,7:0,phenol:phenol,"1,2-Dihydroxybenzene (Catechol)"
Oc1ccccc1O,9.27,7:0,phenol:phenol,"1,2-Dihydroxybenzene (Catechol)"
Oc1ccccc1O,9.46,7:0,phenol:phenol,"1,2-Dihydroxybenzene (Catechol)"
Oc1ccccc1O,9.45,7:0,phenol:phenol,"1,2-Dihydroxybenzene (Catechol)"
Oc1cccc(O)c1,11.06,0:6,phenol:phenol,"1,3-Dihydroxybenzene (Resorcinol)"
Oc1cccc(O)c1,11.0,0:6,phenol:phenol,"1,3-Dihydroxybenzene (Resorcinol)"
Oc1cccc(O)c1,9.3,0:6,phenol:phenol,"1,3-Dihydroxybenzene (Resorcinol)"
Oc1cccc(O)c1,9.28,0:6,phenol:phenol,"1,3-Dihydroxybenzene (Resorcinol)"
Oc1ccc(O)cc1,11.39,0:5,phenol:phenol,"1,4-Dihydroxybenzene (Hydroquinone)"
Oc1ccc(O)cc1,11.5,0:5,phenol:phenol,"1,4-Dihydroxybenzene (Hydroquinone)"
Oc1ccc(O)cc1,9.85,0:5,phenol:phenol,"1,4-Dihydroxybenzene (Hydroquinone)"
Oc1ccc(O)cc1,9.89,0:5,phenol:phenol,"1,4-Dihydroxybenzene (Hydroquinone)"
Cc1ccc(O)c(O)c1,13.8,5:7,phenol:phenol,"1,2-Dihydroxy-4-methylbenzene (4-Methylcatechol)"
Cc1ccc(O)c(O)c1,14.0,5:7,phenol:phenol,"1,2-Dihydroxy-4-methylbenzene (4-Methylcatechol)"
Cc1ccc(O)c(O)c1,9.4,5:7,phenol:phenol,"1,2-Dihydroxy-4-methylbenzene (4-Methylcatechol)"
Cc1ccc(O)c(O)c1,9.56,5:7,phenol:phenol,"1,2-Dihydroxy-4-methylbenzene (4-Methylcatechol)"
Cc1cc(O)ccc1O,11.62,8:4,phenol:phenol,"1,4-Dihydroxy-2-methylbenzene (Toluhydroquinone)"
Cc1cc(O)ccc1O,10.05,8:4,phenol:phenol,"1,4-Dihydroxy-2-methylbenzene (Toluhydroquinone)"
Cc1c(C)c(O)c(C)c(C)c1O,12.7,11:5,phenol:phenol,"1,4-Dihydroxytetramethylbenzene (Durohydroquinone)"
Cc1c(C)c(O)c(C)c(C)c1O,11.25,11:5,phenol:phenol,"1,4-Dihydroxytetramethylbenzene (Durohydroquinone)"
Oc1ccc(Br)cc1O,11.32,8:0,phenol:phenol,"4-Bromo-1,2-dihydroxybenzene (4-Bromocatechol)"
Oc1ccc(Br)cc1O,8.37,8:0,phenol:phenol,"4-Bromo-1,2-dihydroxybenzene (4-Bromocatechol)"
Oc1cccc(c1O)[N+]([O-])=O,11.6,7:0,phenol:phenol,"1,2-Dihydroxy-3-nitrobenzene (3-Nitrocatechol)"
Oc1cccc(c1O)[N+]([O-])=O,6.48,7:0,phenol:phenol,"1,2-Dihydroxy-3-nitrobenzene (3-Nitrocatechol)"
Oc1ccc(cc1O)[N+]([O-])=O,10.83,7:0,phenol:phenol,"1,2-Dihydroxy-4-nitrobenzene (4-Nitrocatechol)"
Oc1ccc(cc1O)[N+]([O-])=O,10.68,7:0,phenol:phenol,"1,2-Dihydroxy-4-nitrobenzene (4-Nitrocatechol)"
Oc1ccc(cc1O)[N+]([O-])=O,11.21,7:0,phenol:phenol,"1,2-Dihydroxy-4-nitrobenzene (4-Nitrocatechol)"
Oc1ccc(cc1O)[N+]([O-])=O,6.69,7:0,phenol:phenol,"1,2-Dihydroxy-4-nitrobenzene (4-Nitrocatechol)"
Oc1ccc(cc1O)[N+]([O-])=O,6.68,7:0,phenol:phenol,"1,2-Dihydroxy-4-nitrobenzene (4-Nitrocatechol)"
Oc1ccc(cc1O)[N+]([O-])=O,6.9,7:0,phenol:phenol,"1,2-Dihydroxy-4-nitrobenzene (4-Nitrocatechol)"
Oc1ccc(c(c1O)[N+]([O-])=O)[N+]([O-])=O,8.24,7:0,phenol:phenol,"1,2-Dihydroxy-3,4-dinitrobenzene (3,4-Dinitrocatechol)"
Oc1ccc(c(c1O)[N+]([O-])=O)[N+]([O-])=O,4.02,7:0,phenol:phenol,"1,2-Dihydroxy-3,4-dinitrobenzene (3,4-Dinitrocatechol)"
Oc1cc(cc(c1O)[N+]([O-])=O)[N+]([O-])=O,9.8,7:0,phenol:phenol,"1,2-Dihydroxy-3,5-Nitrobenzene (3,5-Dinitrocatechol)"
Oc1cc(cc(c1O)[N+]([O-])=O)[N+]([O-])=O,9.86,7:0,phenol:phenol,"1,2-Dihydroxy-3,5-Nitrobenzene (3,5-Dinitrocatechol)"
Oc1cc(cc(c1O)[N+]([O-])=O)[N+]([O-])=O,3.38,7:0,phenol:phenol,"1,2-Dihydroxy-3,5-Nitrobenzene (3,5-Dinitrocatechol)"
Oc1cc(cc(c1O)[N+]([O-])=O)[N+]([O-])=O,3.32,7:0,phenol:phenol,"1,2-Dihydroxy-3,5-Nitrobenzene (3,5-Dinitrocatechol)"
Oc1c(cc(c(O)c1[N+]([O-])=O)[N+]([O-])=O)[N+]([O-])=O,4.23,0:6,phenol:phenol,"1,3-Dihydroxy-2,4,6-trinitrobenzene (2,4,6-Trinitroresorcinol)"
Oc1c(cc(c(O)c1[N+]([O-])=O)[N+]([O-])=O)[N+]([O-])=O,0.1,0:6,phenol:phenol,"1,3-Dihydroxy-2,4,6-trinitrobenzene (2,4,6-Trinitroresorcinol)"
Oc1cccc(ON=O)c1,9.02,0:6,phenol:hydroxyl_group,"1,3-Dihydroxy-4-nitrosobenzene (Nitrosoresorcinol)"
Oc1cccc(ON=O)c1,8.84,0:6,phenol:hydroxyl_group,"1,3-Dihydroxy-4-nitrosobenzene (Nitrosoresorcinol)"
Oc1cccc(ON=O)c1,8.83,0:6,phenol:hydroxyl_group,"1,3-Dihydroxy-4-nitrosobenzene (Nitrosoresorcinol)"
Oc1cccc(ON=O)c1,9.44,0:6,phenol:hydroxyl_group,"1,3-Dihydroxy-4-nitrosobenzene (Nitrosoresorcinol)"
Oc1cccc(ON=O)c1,4.1,0:6,phenol:hydroxyl_group,"1,3-Dihydroxy-4-nitrosobenzene (Nitrosoresorcinol)"
Oc1cccc(ON=O)c1,4.07,0:6,phenol:hydroxyl_group,"1,3-Dihydroxy-4-nitrosobenzene (Nitrosoresorcinol)"
Oc1cccc(ON=O)c1,4.08,0:6,phenol:hydroxyl_group,"1,3-Dihydroxy-4-nitrosobenzene (Nitrosoresorcinol)"
Oc1cccc(ON=O)c1,4.31,0:6,phenol:hydroxyl_group,"1,3-Dihydroxy-4-nitrosobenzene (Nitrosoresorcinol)"
Oc1ccc(cc1O)[S](O)(=O)=O,12.8,7:0,phenol:phenol,"1,2-Dihydroxybenzene-4-sulfonic acid (4-Sulfocatechol)"
Oc1ccc(cc1O)[S](O)(=O)=O,12.16,7:0,phenol:phenol,"1,2-Dihydroxybenzene-4-sulfonic acid (4-Sulfocatechol)"
Oc1ccc(cc1O)[S](O)(=O)=O,8.5,7:0,phenol:phenol,"1,2-Dihydroxybenzene-4-sulfonic acid (4-Sulfocatechol)"
Oc1ccc(cc1O)[S](O)(=O)=O,8.26,7:0,phenol:phenol,"1,2-Dihydroxybenzene-4-sulfonic acid (4-Sulfocatechol)"
[Na+].[Na+].Oc1cc(cc(c1O)[S]([O-])(=O)=O)[S]([O-])(=O)=O,12.5,9:2,phenol:phenol,"1,2-Dihydroxybenzene-3,5-disulfonic acid (Tiron)"
[Na+].[Na+].Oc1cc(cc(c1O)[S]([O-])(=O)=O)[S]([O-])(=O)=O,11.8,9:2,phenol:phenol,"1,2-Dihydroxybenzene-3,5-disulfonic acid (Tiron)"