SMILES,pKa,Dissociable_Atoms,Functional_Group,Name,Dissociable_Atoms_Ordered,Functional_Group_Ordered,Dissociation_Order
NC(Cc1cc(I)c(O)c(I)c1)C(O)=O,9.1,13:0,carboxylic_acid:amine_primary,"L-2-Amino-3-(4-hydroxy-3,5-diiodophenyl)propanoic acid (L-3,5-Diiodotyrosine)",13:0,carboxylic_acid:amine_primary,13(carboxylic_acid) > 0(amine_primary)
NC(Cc1cc(I)c(O)c(I)c1)C(O)=O,6.16,13:0,carboxylic_acid:amine_primary,"L-2-Amino-3-(4-hydroxy-3,5-diiodophenyl)propanoic acid (L-3,5-Diiodotyrosine)",13:0,carboxylic_acid:amine_primary,13(carboxylic_acid) > 0(amine_primary)
N[C@@H](Cc1ccc(O)c(N)c1)C(O)=O,10.19,0:7:9:12,amine_primary:phenol:amine_primary:carboxylic_acid,L-2-Amino-3-(3-amino-4-hydroxyphenyl)propanoic acid (m-Aminotyrosine),12:7:0:9,carboxylic_acid:phenol:amine_primary:amine_primary,12(carboxylic_acid) > 7(phenol) > 0(amine_primary) > 9(amine_primary)
N[C@@H](Cc1ccc(O)c(N)c1)C(O)=O,9.09,0:7:9:12,amine_primary:phenol:amine_primary:carboxylic_acid,L-2-Amino-3-(3-amino-4-hydroxyphenyl)propanoic acid (m-Aminotyrosine),12:7:0:9,carboxylic_acid:phenol:amine_primary:amine_primary,12(carboxylic_acid) > 7(phenol) > 0(amine_primary) > 9(amine_primary)
N[C@@H](Cc1ccc(O)c(N)c1)C(O)=O,4.48,0:7:9:12,amine_primary:phenol:amine_primary:carboxylic_acid,L-2-Amino-3-(3-amino-4-hydroxyphenyl)propanoic acid (m-Aminotyrosine),12:7:0:9,carboxylic_acid:phenol:amine_primary:amine_primary,12(carboxylic_acid) > 7(phenol) > 0(amine_primary) > 9(amine_primary)
N[C@@H](Cc1ccc(O)c(N)c1)C(O)=O,2.0,0:7:9:12,amine_primary:phenol:amine_primary:carboxylic_acid,L-2-Amino-3-(3-amino-4-hydroxyphenyl)propanoic acid (m-Aminotyrosine),12:7:0:9,carboxylic_acid:phenol:amine_primary:amine_primary,12(carboxylic_acid) > 7(phenol) > 0(amine_primary) > 9(amine_primary)
N[C@@H](Cc1ccc(O)c(O)c1)C(O)=O,13.4,0:7:9:12,amine_primary:phenol:phenol:carboxylic_acid,"L-2-Amino-3-(3,4-dihydroxyphenyl)propanoic acid (DOPA)",12:7:9:0,carboxylic_acid:phenol:phenol:amine_primary,12(carboxylic_acid) > 7(phenol) > 9(phenol) > 0(amine_primary)
N[C@@H](Cc1ccc(O)c(O)c1)C(O)=O,9.81,0:7:9:12,amine_primary:phenol:phenol:carboxylic_acid,"L-2-Amino-3-(3,4-dihydroxyphenyl)propanoic acid (DOPA)",12:7:9:0,carboxylic_acid:phenol:phenol:amine_primary,12(carboxylic_acid) > 7(phenol) > 9(phenol) > 0(amine_primary)
N[C@@H](Cc1ccc(O)c(O)c1)C(O)=O,9.7,0:7:9:12,amine_primary:phenol:phenol:carboxylic_acid,"L-2-Amino-3-(3,4-dihydroxyphenyl)propanoic acid (DOPA)",12:7:9:0,carboxylic_acid:phenol:phenol:amine_primary,12(carboxylic_acid) > 7(phenol) > 9(phenol) > 0(amine_primary)
N[C@@H](Cc1ccc(O)c(O)c1)C(O)=O,9.87,0:7:9:12,amine_primary:phenol:phenol:carboxylic_acid,"L-2-Amino-3-(3,4-dihydroxyphenyl)propanoic acid (DOPA)",12:7:9:0,carboxylic_acid:phenol:phenol:amine_primary,12(carboxylic_acid) > 7(phenol) > 9(phenol) > 0(amine_primary)
N[C@@H](Cc1ccc(O)c(O)c1)C(O)=O,9.76,0:7:9:12,amine_primary:phenol:phenol:carboxylic_acid,"L-2-Amino-3-(3,4-dihydroxyphenyl)propanoic acid (DOPA)",12:7:9:0,carboxylic_acid:phenol:phenol:amine_primary,12(carboxylic_acid) > 7(phenol) > 9(phenol) > 0(amine_primary)
N[C@@H](Cc1ccc(O)c(O)c1)C(O)=O,8.75,0:7:9:12,amine_primary:phenol:phenol:carboxylic_acid,"L-2-Amino-3-(3,4-dihydroxyphenyl)propanoic acid (DOPA)",12:7:9:0,carboxylic_acid:phenol:phenol:amine_primary,12(carboxylic_acid) > 7(phenol) > 9(phenol) > 0(amine_primary)
N[C@@H](Cc1ccc(O)c(O)c1)C(O)=O,8.7,0:7:9:12,amine_primary:phenol:phenol:carboxylic_acid,"L-2-Amino-3-(3,4-dihydroxyphenyl)propanoic acid (DOPA)",12:7:9:0,carboxylic_acid:phenol:phenol:amine_primary,12(carboxylic_acid) > 7(phenol) > 9(phenol) > 0(amine_primary)
N[C@@H](Cc1ccc(O)c(O)c1)C(O)=O,8.81,0:7:9:12,amine_primary:phenol:phenol:carboxylic_acid,"L-2-Amino-3-(3,4-dihydroxyphenyl)propanoic acid (DOPA)",12:7:9:0,carboxylic_acid:phenol:phenol:amine_primary,12(carboxylic_acid) > 7(phenol) > 9(phenol) > 0(amine_primary)
N[C@@H](Cc1ccc(O)c(O)c1)C(O)=O,2.2,0:7:9:12,amine_primary:phenol:phenol:carboxylic_acid,"L-2-Amino-3-(3,4-dihydroxyphenyl)propanoic acid (DOPA)",12:7:9:0,carboxylic_acid:phenol:phenol:amine_primary,12(carboxylic_acid) > 7(phenol) > 9(phenol) > 0(amine_primary)
N[C@@H](Cc1ccc(O)c(O)c1)C(O)=O,2.15,0:7:9:12,amine_primary:phenol:phenol:carboxylic_acid,"L-2-Amino-3-(3,4-dihydroxyphenyl)propanoic acid (DOPA)",12:7:9:0,carboxylic_acid:phenol:phenol:amine_primary,12(carboxylic_acid) > 7(phenol) > 9(phenol) > 0(amine_primary)
N[C@@H](Cc1ccc(O)c(O)c1)C(O)=O,2.04,0:7:9:12,amine_primary:phenol:phenol:carboxylic_acid,"L-2-Amino-3-(3,4-dihydroxyphenyl)propanoic acid (DOPA)",12:7:9:0,carboxylic_acid:phenol:phenol:amine_primary,12(carboxylic_acid) > 7(phenol) > 9(phenol) > 0(amine_primary)
N[C@@H](Cc1ccc(O)c(O)c1)C(O)=O,2.35,0:7:9:12,amine_primary:phenol:phenol:carboxylic_acid,"L-2-Amino-3-(3,4-dihydroxyphenyl)propanoic acid (DOPA)",12:7:9:0,carboxylic_acid:phenol:phenol:amine_primary,12(carboxylic_acid) > 7(phenol) > 9(phenol) > 0(amine_primary)
N[C@@H](CO)C(O)=O,9.05,5:0,carboxylic_acid:amine_primary,L-2-Amino-3-hydroxypropanoic acid (Serine),5:0,carboxylic_acid:amine_primary,5(carboxylic_acid) > 0(amine_primary)
N[C@@H](CO)C(O)=O,8.72,5:0,carboxylic_acid:amine_primary,L-2-Amino-3-hydroxypropanoic acid (Serine),5:0,carboxylic_acid:amine_primary,5(carboxylic_acid) > 0(amine_primary)
N[C@@H](CO)C(O)=O,9.0,5:0,carboxylic_acid:amine_primary,L-2-Amino-3-hydroxypropanoic acid (Serine),5:0,carboxylic_acid:amine_primary,5(carboxylic_acid) > 0(amine_primary)
N[C@@H](CO)C(O)=O,9.27,5:0,carboxylic_acid:amine_primary,L-2-Amino-3-hydroxypropanoic acid (Serine),5:0,carboxylic_acid:amine_primary,5(carboxylic_acid) > 0(amine_primary)
N[C@@H](CO)C(O)=O,9.45,5:0,carboxylic_acid:amine_primary,L-2-Amino-3-hydroxypropanoic acid (Serine),5:0,carboxylic_acid:amine_primary,5(carboxylic_acid) > 0(amine_primary)
N[C@@H](CO)C(O)=O,9.5,5:0,carboxylic_acid:amine_primary,L-2-Amino-3-hydroxypropanoic acid (Serine),5:0,carboxylic_acid:amine_primary,5(carboxylic_acid) > 0(amine_primary)
N[C@@H](CO)C(O)=O,9.64,5:0,carboxylic_acid:amine_primary,L-2-Amino-3-hydroxypropanoic acid (Serine),5:0,carboxylic_acid:amine_primary,5(carboxylic_acid) > 0(amine_primary)
N[C@@H](CO)C(O)=O,9.542,5:0,carboxylic_acid:amine_primary,L-2-Amino-3-hydroxypropanoic acid (Serine),5:0,carboxylic_acid:amine_primary,5(carboxylic_acid) > 0(amine_primary)
N[C@@H](CO)C(O)=O,9.209,5:0,carboxylic_acid:amine_primary,L-2-Amino-3-hydroxypropanoic acid (Serine),5:0,carboxylic_acid:amine_primary,5(carboxylic_acid) > 0(amine_primary)
N[C@@H](CO)C(O)=O,8.904,5:0,carboxylic_acid:amine_primary,L-2-Amino-3-hydroxypropanoic acid (Serine),5:0,carboxylic_acid:amine_primary,5(carboxylic_acid) > 0(amine_primary)
N[C@@H](CO)C(O)=O,2.16,5:0,carboxylic_acid:amine_primary,L-2-Amino-3-hydroxypropanoic acid (Serine),5:0,carboxylic_acid:amine_primary,5(carboxylic_acid) > 0(amine_primary)
N[C@@H](CO)C(O)=O,2.11,5:0,carboxylic_acid:amine_primary,L-2-Amino-3-hydroxypropanoic acid (Serine),5:0,carboxylic_acid:amine_primary,5(carboxylic_acid) > 0(amine_primary)
N[C@@H](CO)C(O)=O,2.2,5:0,carboxylic_acid:amine_primary,L-2-Amino-3-hydroxypropanoic acid (Serine),5:0,carboxylic_acid:amine_primary,5(carboxylic_acid) > 0(amine_primary)
N[C@@H](CO)C(O)=O,2.19,5:0,carboxylic_acid:amine_primary,L-2-Amino-3-hydroxypropanoic acid (Serine),5:0,carboxylic_acid:amine_primary,5(carboxylic_acid) > 0(amine_primary)
N[C@@H](CO)C(O)=O,2.32,5:0,carboxylic_acid:amine_primary,L-2-Amino-3-hydroxypropanoic acid (Serine),5:0,carboxylic_acid:amine_primary,5(carboxylic_acid) > 0(amine_primary)
N[C@@H](CO)C(O)=O,2.41,5:0,carboxylic_acid:amine_primary,L-2-Amino-3-hydroxypropanoic acid (Serine),5:0,carboxylic_acid:amine_primary,5(carboxylic_acid) > 0(amine_primary)
N[C@@H](CO)C(O)=O,2.45,5:0,carboxylic_acid:amine_primary,L-2-Amino-3-hydroxypropanoic acid (Serine),5:0,carboxylic_acid:amine_primary,5(carboxylic_acid) > 0(amine_primary)
N[C@@H](CO)C(O)=O,2.54,5:0,carboxylic_acid:amine_primary,L-2-Amino-3-hydroxypropanoic acid (Serine),5:0,carboxylic_acid:amine_primary,5(carboxylic_acid) > 0(amine_primary)
N[C@@H](CO)C(O)=O,2.232,5:0,carboxylic_acid:amine_primary,L-2-Amino-3-hydroxypropanoic acid (Serine),5:0,carboxylic_acid:amine_primary,5(carboxylic_acid) > 0(amine_primary)
N[C@@H](CO)C(O)=O,2.187,5:0,carboxylic_acid:amine_primary,L-2-Amino-3-hydroxypropanoic acid (Serine),5:0,carboxylic_acid:amine_primary,5(carboxylic_acid) > 0(amine_primary)
N[C@@H](CO)C(O)=O,2.154,5:0,carboxylic_acid:amine_primary,L-2-Amino-3-hydroxypropanoic acid (Serine),5:0,carboxylic_acid:amine_primary,5(carboxylic_acid) > 0(amine_primary)
C[C@@H](O)[C@H](N)C(O)=O,8.94,6:4,carboxylic_acid:amine_primary,L-2-Amino-3-hydroxybutanoic acid (Threonine),6:4,carboxylic_acid:amine_primary,6(carboxylic_acid) > 4(amine_primary)
C[C@@H](O)[C@H](N)C(O)=O,8.58,6:4,carboxylic_acid:amine_primary,L-2-Amino-3-hydroxybutanoic acid (Threonine),6:4,carboxylic_acid:amine_primary,6(carboxylic_acid) > 4(amine_primary)
C[C@@H](O)[C@H](N)C(O)=O,8.89,6:4,carboxylic_acid:amine_primary,L-2-Amino-3-hydroxybutanoic acid (Threonine),6:4,carboxylic_acid:amine_primary,6(carboxylic_acid) > 4(amine_primary)
C[C@@H](O)[C@H](N)C(O)=O,8.98,6:4,carboxylic_acid:amine_primary,L-2-Amino-3-hydroxybutanoic acid (Threonine),6:4,carboxylic_acid:amine_primary,6(carboxylic_acid) > 4(amine_primary)
C[C@@H](O)[C@H](N)C(O)=O,9.19,6:4,carboxylic_acid:amine_primary,L-2-Amino-3-hydroxybutanoic acid (Threonine),6:4,carboxylic_acid:amine_primary,6(carboxylic_acid) > 4(amine_primary)
C[C@@H](O)[C@H](N)C(O)=O,9.35,6:4,carboxylic_acid:amine_primary,L-2-Amino-3-hydroxybutanoic acid (Threonine),6:4,carboxylic_acid:amine_primary,6(carboxylic_acid) > 4(amine_primary)
C[C@@H](O)[C@H](N)C(O)=O,9.1,6:4,carboxylic_acid:amine_primary,L-2-Amino-3-hydroxybutanoic acid (Threonine),6:4,carboxylic_acid:amine_primary,6(carboxylic_acid) > 4(amine_primary)
C[C@@H](O)[C@H](N)C(O)=O,2.2,6:4,carboxylic_acid:amine_primary,L-2-Amino-3-hydroxybutanoic acid (Threonine),6:4,carboxylic_acid:amine_primary,6(carboxylic_acid) > 4(amine_primary)
C[C@@H](O)[C@H](N)C(O)=O,2.15,6:4,carboxylic_acid:amine_primary,L-2-Amino-3-hydroxybutanoic acid (Threonine),6:4,carboxylic_acid:amine_primary,6(carboxylic_acid) > 4(amine_primary)
C[C@@H](O)[C@H](N)C(O)=O,2.19,6:4,carboxylic_acid:amine_primary,L-2-Amino-3-hydroxybutanoic acid (Threonine),6:4,carboxylic_acid:amine_primary,6(carboxylic_acid) > 4(amine_primary)
C[C@@H](O)[C@H](N)C(O)=O,2.24,6:4,carboxylic_acid:amine_primary,L-2-Amino-3-hydroxybutanoic acid (Threonine),6:4,carboxylic_acid:amine_primary,6(carboxylic_acid) > 4(amine_primary)
C[C@@H](O)[C@H](N)C(O)=O,2.33,6:4,carboxylic_acid:amine_primary,L-2-Amino-3-hydroxybutanoic acid (Threonine),6:4,carboxylic_acid:amine_primary,6(carboxylic_acid) > 4(amine_primary)
C[C@@H](O)[C@H](N)C(O)=O,2.41,6:4,carboxylic_acid:amine_primary,L-2-Amino-3-hydroxybutanoic acid (Threonine),6:4,carboxylic_acid:amine_primary,6(carboxylic_acid) > 4(amine_primary)
C[C@@H](O)[C@H](N)C(O)=O,2.088,6:4,carboxylic_acid:amine_primary,L-2-Amino-3-hydroxybutanoic acid (Threonine),6:4,carboxylic_acid:amine_primary,6(carboxylic_acid) > 4(amine_primary)
C[C@H](O)[C@H](N)C(O)=O,8.92,6:4,carboxylic_acid:amine_primary,allo-L-2-Amino-3-hydroxybutanoic acid (L-allo-Threonine),6:4,carboxylic_acid:amine_primary,6(carboxylic_acid) > 4(amine_primary)
C[C@H](O)[C@H](N)C(O)=O,9.096,6:4,carboxylic_acid:amine_primary,allo-L-2-Amino-3-hydroxybutanoic acid (L-allo-Threonine),6:4,carboxylic_acid:amine_primary,6(carboxylic_acid) > 4(amine_primary)
C[C@H](O)[C@H](N)C(O)=O,2.11,6:4,carboxylic_acid:amine_primary,allo-L-2-Amino-3-hydroxybutanoic acid (L-allo-Threonine),6:4,carboxylic_acid:amine_primary,6(carboxylic_acid) > 4(amine_primary)
C[C@H](O)[C@H](N)C(O)=O,2.09,6:4,carboxylic_acid:amine_primary,allo-L-2-Amino-3-hydroxybutanoic acid (L-allo-Threonine),6:4,carboxylic_acid:amine_primary,6(carboxylic_acid) > 4(amine_primary)
C[C@H](O)[C@H](N)C(O)=O,2.108,6:4,carboxylic_acid:amine_primary,allo-L-2-Amino-3-hydroxybutanoic acid (L-allo-Threonine),6:4,carboxylic_acid:amine_primary,6(carboxylic_acid) > 4(amine_primary)
N[C@@H](CCO)C(O)=O,9.28,6:0,carboxylic_acid:amine_primary,L-2-Amino-4-hydroxybutanoic acid (Homoserine),6:0,carboxylic_acid:amine_primary,6(carboxylic_acid) > 0(amine_primary)
N[C@@H](CCO)C(O)=O,9.33,6:0,carboxylic_acid:amine_primary,L-2-Amino-4-hydroxybutanoic acid (Homoserine),6:0,carboxylic_acid:amine_primary,6(carboxylic_acid) > 0(amine_primary)
N[C@@H](CCO)C(O)=O,9.5,6:0,carboxylic_acid:amine_primary,L-2-Amino-4-hydroxybutanoic acid (Homoserine),6:0,carboxylic_acid:amine_primary,6(carboxylic_acid) > 0(amine_primary)
N[C@@H](CCO)C(O)=O,2.24,6:0,carboxylic_acid:amine_primary,L-2-Amino-4-hydroxybutanoic acid (Homoserine),6:0,carboxylic_acid:amine_primary,6(carboxylic_acid) > 0(amine_primary)
N[C@@H](CCO)C(O)=O,2.34,6:0,carboxylic_acid:amine_primary,L-2-Amino-4-hydroxybutanoic acid (Homoserine),6:0,carboxylic_acid:amine_primary,6(carboxylic_acid) > 0(amine_primary)
N[C@@H](CCO)C(O)=O,2.45,6:0,carboxylic_acid:amine_primary,L-2-Amino-4-hydroxybutanoic acid (Homoserine),6:0,carboxylic_acid:amine_primary,6(carboxylic_acid) > 0(amine_primary)
NCC(O)C(O)=O,9.13,5:0,carboxylic_acid:amine_primary,DL-3-Amino-2-hydroxypropanoic acid (Isoserine),5:0,carboxylic_acid:amine_primary,5(carboxylic_acid) > 0(amine_primary)
NCC(O)C(O)=O,2.66,5:0,carboxylic_acid:amine_primary,DL-3-Amino-2-hydroxypropanoic acid (Isoserine),5:0,carboxylic_acid:amine_primary,5(carboxylic_acid) > 0(amine_primary)
NC(C(O)C(O)C(O)CO)C(O)=O,9.08,11:0,carboxylic_acid:amine_primary,"D-gluco-2-Amino-3,4,5,6-tetrahydroxyhexanoic acid (D-Glucosaminic acid)",11:0,carboxylic_acid:amine_primary,11(carboxylic_acid) > 0(amine_primary)
NC(C(O)C(O)C(O)CO)C(O)=O,2.2,11:0,carboxylic_acid:amine_primary,"D-gluco-2-Amino-3,4,5,6-tetrahydroxyhexanoic acid (D-Glucosaminic acid)",11:0,carboxylic_acid:amine_primary,11(carboxylic_acid) > 0(amine_primary)
COc1ccc(NCC(O)=O)cc1,9.07,6:9,amine_secondary:carboxylic_acid,DL-Amino-4-Methoxyphenylacetic acid (4-Methoxyphenylglycine),9:6,carboxylic_acid:amine_secondary,9(carboxylic_acid) > 6(amine_secondary)
COc1ccc(NCC(O)=O)cc1,2.0,6:9,amine_secondary:carboxylic_acid,DL-Amino-4-Methoxyphenylacetic acid (4-Methoxyphenylglycine),9:6,carboxylic_acid:amine_secondary,9(carboxylic_acid) > 6(amine_secondary)
CCOC(=O)CC[C@H](N)C([O-])=O,9.19,8:10,amine_primary:carboxylic_acid,DL-2-Aminopentanedioic acid 5-ethyl ester (5-Ethyl glutamate),10:8,carboxylic_acid:amine_primary,10(carboxylic_acid) > 8(amine_primary)
CCOC(=O)CC[C@H](N)C([O-])=O,2.15,8:10,amine_primary:carboxylic_acid,DL-2-Aminopentanedioic acid 5-ethyl ester (5-Ethyl glutamate),10:8,carboxylic_acid:amine_primary,10(carboxylic_acid) > 8(amine_primary)
N[C@@H](CCC(=O)OCc1ccccc1)C([O-])=O,8.89,0:15,amine_primary:carboxylic_acid,L-2-Aminopentanedioic acid 5-benzyl ester (5-Benzyl glutamate),15:0,carboxylic_acid:amine_primary,15(carboxylic_acid) > 0(amine_primary)
N[C@@H](CCC(=O)OCc1ccccc1)C([O-])=O,2.06,0:15,amine_primary:carboxylic_acid,L-2-Aminopentanedioic acid 5-benzyl ester (5-Benzyl glutamate),15:0,carboxylic_acid:amine_primary,15(carboxylic_acid) > 0(amine_primary)
CCOC(=O)[C@@H](N)CCC([O-])=O,7.84,6:10,amine_primary:carboxylic_acid,DL-2-Aminopentanedioic acid 1-ethyl ester (1-Ethyl glutamate),10:6,carboxylic_acid:amine_primary,10(carboxylic_acid) > 6(amine_primary)
CCOC(=O)[C@@H](N)CCC([O-])=O,3.85,6:10,amine_primary:carboxylic_acid,DL-2-Aminopentanedioic acid 1-ethyl ester (1-Ethyl glutamate),10:6,carboxylic_acid:amine_primary,10(carboxylic_acid) > 6(amine_primary)
N[C@@H](CC(N)=O)C(O)=O,8.73,7:0,carboxylic_acid:amine_primary,L-2-Aminobutanedioic acid 4-amide (Asparagine),7:0,carboxylic_acid:amine_primary,7(carboxylic_acid) > 0(amine_primary)
N[C@@H](CC(N)=O)C(O)=O,8.46,7:0,carboxylic_acid:amine_primary,L-2-Aminobutanedioic acid 4-amide (Asparagine),7:0,carboxylic_acid:amine_primary,7(carboxylic_acid) > 0(amine_primary)
N[C@@H](CC(N)=O)C(O)=O,8.64,7:0,carboxylic_acid:amine_primary,L-2-Aminobutanedioic acid 4-amide (Asparagine),7:0,carboxylic_acid:amine_primary,7(carboxylic_acid) > 0(amine_primary)
N[C@@H](CC(N)=O)C(O)=O,8.69,7:0,carboxylic_acid:amine_primary,L-2-Aminobutanedioic acid 4-amide (Asparagine),7:0,carboxylic_acid:amine_primary,7(carboxylic_acid) > 0(amine_primary)
N[C@@H](CC(N)=O)C(O)=O,9.3,7:0,carboxylic_acid:amine_primary,L-2-Aminobutanedioic acid 4-amide (Asparagine),7:0,carboxylic_acid:amine_primary,7(carboxylic_acid) > 0(amine_primary)
N[C@@H](CC(N)=O)C(O)=O,2.16,7:0,carboxylic_acid:amine_primary,L-2-Aminobutanedioic acid 4-amide (Asparagine),7:0,carboxylic_acid:amine_primary,7(carboxylic_acid) > 0(amine_primary)
N[C@@H](CC(N)=O)C(O)=O,2.15,7:0,carboxylic_acid:amine_primary,L-2-Aminobutanedioic acid 4-amide (Asparagine),7:0,carboxylic_acid:amine_primary,7(carboxylic_acid) > 0(amine_primary)
N[C@@H](CC(N)=O)C(O)=O,2.11,7:0,carboxylic_acid:amine_primary,L-2-Aminobutanedioic acid 4-amide (Asparagine),7:0,carboxylic_acid:amine_primary,7(carboxylic_acid) > 0(amine_primary)
N[C@@H](CC(N)=O)C(O)=O,2.59,7:0,carboxylic_acid:amine_primary,L-2-Aminobutanedioic acid 4-amide (Asparagine),7:0,carboxylic_acid:amine_primary,7(carboxylic_acid) > 0(amine_primary)
N[C@@H](CCC(N)=O)C(O)=O,9.0,8:0,carboxylic_acid:amine_primary,L-2-Aminopentanedioic acid 5-amide (Glutamine),8:0,carboxylic_acid:amine_primary,8(carboxylic_acid) > 0(amine_primary)
N[C@@H](CCC(N)=O)C(O)=O,8.7,8:0,carboxylic_acid:amine_primary,L-2-Aminopentanedioic acid 5-amide (Glutamine),8:0,carboxylic_acid:amine_primary,8(carboxylic_acid) > 0(amine_primary)
N[C@@H](CCC(N)=O)C(O)=O,8.94,8:0,carboxylic_acid:amine_primary,L-2-Aminopentanedioic acid 5-amide (Glutamine),8:0,carboxylic_acid:amine_primary,8(carboxylic_acid) > 0(amine_primary)
N[C@@H](CCC(N)=O)C(O)=O,9.64,8:0,carboxylic_acid:amine_primary,L-2-Aminopentanedioic acid 5-amide (Glutamine),8:0,carboxylic_acid:amine_primary,8(carboxylic_acid) > 0(amine_primary)
N[C@@H](CCC(N)=O)C(O)=O,2.19,8:0,carboxylic_acid:amine_primary,L-2-Aminopentanedioic acid 5-amide (Glutamine),8:0,carboxylic_acid:amine_primary,8(carboxylic_acid) > 0(amine_primary)
N[C@@H](CCC(N)=O)C(O)=O,2.14,8:0,carboxylic_acid:amine_primary,L-2-Aminopentanedioic acid 5-amide (Glutamine),8:0,carboxylic_acid:amine_primary,8(carboxylic_acid) > 0(amine_primary)
N[C@@H](CCC(N)=O)C(O)=O,2.72,8:0,carboxylic_acid:amine_primary,L-2-Aminopentanedioic acid 5-amide (Glutamine),8:0,carboxylic_acid:amine_primary,8(carboxylic_acid) > 0(amine_primary)
OC(=O)CCc1c[nH]cn1,7.44,0:7,carboxylic_acid:amine_secondary,3-(4-Imidazolyl)propanoic acid,0:7,carboxylic_acid:amine_secondary,0(carboxylic_acid) > 7(amine_secondary)
OC(=O)CCc1c[nH]cn1,3.83,0:7,carboxylic_acid:amine_secondary,3-(4-Imidazolyl)propanoic acid,0:7,carboxylic_acid:amine_secondary,0(carboxylic_acid) > 7(amine_secondary)
OC(Cc1c[nH]cn1)C(O)=O,7.31,9:5,carboxylic_acid:amine_secondary,2-Hydroxy-3-(4-imidazolyl)propanoic acid,9:5,carboxylic_acid:amine_secondary,9(carboxylic_acid) > 5(amine_secondary)
OC(Cc1c[nH]cn1)C(O)=O,3.0,9:5,carboxylic_acid:amine_secondary,2-Hydroxy-3-(4-imidazolyl)propanoic acid,9:5,carboxylic_acid:amine_secondary,9(carboxylic_acid) > 5(amine_secondary)
CC(=O)N[C@@H](Cc1c[nH]cn1)C(O)=O,7.02,12:3,carboxylic_acid:amine_secondary,N-Acetyl-L-histidine,12:3,carboxylic_acid:amine_secondary,12(carboxylic_acid) > 3(amine_secondary)
CC(=O)N[C@@H](Cc1c[nH]cn1)C(O)=O,2.84,12:3,carboxylic_acid:amine_secondary,N-Acetyl-L-histidine,12:3,carboxylic_acid:amine_secondary,12(carboxylic_acid) > 3(amine_secondary)
CC(=O)NCC(=O)N[C@@H](Cc1c[nH]cn1)C(O)=O,6.99,16:3,carboxylic_acid:amine_secondary,N-Acetylglycyl-L-histidine,16:3,carboxylic_acid:amine_secondary,16(carboxylic_acid) > 3(amine_secondary)
CC(=O)NCC(=O)N[C@@H](Cc1c[nH]cn1)C(O)=O,2.87,16:3,carboxylic_acid:amine_secondary,N-Acetylglycyl-L-histidine,16:3,carboxylic_acid:amine_secondary,16(carboxylic_acid) > 3(amine_secondary)
CC(=O)NCC(=O)NCC(=O)N[C@@H](Cc1c[nH]cn1)C(O)=O,7.06,20:3,carboxylic_acid:amine_secondary,N-Acetylglycylglycyl-L-histidine,20:3,carboxylic_acid:amine_secondary,20(carboxylic_acid) > 3(amine_secondary)