SMILES,pKa,Dissociable_Atoms,Functional_Group,Name,Dissociable_Atoms_Ordered,Functional_Group_Ordered,Dissociation_Order
Oc1cnccc1C=O,4.04,0:2,phenol:pyridine_nitrogen,3-Hydroxypyridine-4-carboxaldehyde,0:2,phenol:pyridine_nitrogen,0(phenol) > 2(pyridine_nitrogen)
Oc1cnccc1C=O,4.05,0:2,phenol:pyridine_nitrogen,3-Hydroxypyridine-4-carboxaldehyde,0:2,phenol:pyridine_nitrogen,0(phenol) > 2(pyridine_nitrogen)
Cc1ncc(CO)c(C=O)c1O,8.53,6:11,alcohol:phenol,3-Hydroxy-5-hydroxymethyl-2-methylpyridine-4-carboxaldehyde (Pyridoxal),11:6,phenol:alcohol,11(phenol) > 6(alcohol)
Cc1ncc(CO)c(C=O)c1O,8.39,6:11,alcohol:phenol,3-Hydroxy-5-hydroxymethyl-2-methylpyridine-4-carboxaldehyde (Pyridoxal),11:6,phenol:alcohol,11(phenol) > 6(alcohol)
Cc1ncc(CO)c(C=O)c1O,8.28,6:11,alcohol:phenol,3-Hydroxy-5-hydroxymethyl-2-methylpyridine-4-carboxaldehyde (Pyridoxal),11:6,phenol:alcohol,11(phenol) > 6(alcohol)
Cc1ncc(CO)c(C=O)c1O,4.1,6:11,alcohol:phenol,3-Hydroxy-5-hydroxymethyl-2-methylpyridine-4-carboxaldehyde (Pyridoxal),11:6,phenol:alcohol,11(phenol) > 6(alcohol)
Cc1ncc(CO)c(C=O)c1O,4.15,6:11,alcohol:phenol,3-Hydroxy-5-hydroxymethyl-2-methylpyridine-4-carboxaldehyde (Pyridoxal),11:6,phenol:alcohol,11(phenol) > 6(alcohol)
Cc1ncc(CO)c(C=O)c1O,3.92,6:11,alcohol:phenol,3-Hydroxy-5-hydroxymethyl-2-methylpyridine-4-carboxaldehyde (Pyridoxal),11:6,phenol:alcohol,11(phenol) > 6(alcohol)
Cc1ncc(CO)c(CN)c1O,10.6,6:9:11,alcohol:amine_primary:phenol,4-Aminomethyl-3-hydroxy-5-hydroxymethyl-2-methylpyridine (Pyridoxamine),11:9:6,phenol:amine_primary:alcohol,11(phenol) > 9(amine_primary) > 6(alcohol)
Cc1ncc(CO)c(CN)c1O,8.05,6:9:11,alcohol:amine_primary:phenol,4-Aminomethyl-3-hydroxy-5-hydroxymethyl-2-methylpyridine (Pyridoxamine),11:9:6,phenol:amine_primary:alcohol,11(phenol) > 9(amine_primary) > 6(alcohol)
Cc1ncc(CO)c(CN)c1O,3.38,6:9:11,alcohol:amine_primary:phenol,4-Aminomethyl-3-hydroxy-5-hydroxymethyl-2-methylpyridine (Pyridoxamine),11:9:6,phenol:amine_primary:alcohol,11(phenol) > 9(amine_primary) > 6(alcohol)
ONC(=O)c1cccnc1,7.99,0:1,alcohol:amine_secondary,Pyridine-3-hydroxamic acid,1:0,amine_secondary:alcohol,1(amine_secondary) > 0(alcohol)
ONC(=O)c1cccnc1,3.19,0:1,alcohol:amine_secondary,Pyridine-3-hydroxamic acid,1:0,amine_secondary:alcohol,1(amine_secondary) > 0(alcohol)
Cc1cc(C)c(CN)c(N)n1,9.14,7:9,amine_primary:amine_primary,"2-Amino-3-aminomethyl-4,6-dimethylpyridine",7:9,amine_primary:amine_primary,7(amine_primary) > 9(amine_primary)
Cc1cc(C)c(CN)c(N)n1,6.6,7:9,amine_primary:amine_primary,"2-Amino-3-aminomethyl-4,6-dimethylpyridine",7:9,amine_primary:amine_primary,7(amine_primary) > 9(amine_primary)
COCc1cc(C)nc(N)c1CN,8.96,9:12,amine_primary:amine_primary,2-Amino-3-aminomethyl-6-methyl-4-methoxymethylpyridine,9:12,amine_primary:amine_primary,9(amine_primary) > 12(amine_primary)
COCc1cc(C)nc(N)c1CN,5.78,9:12,amine_primary:amine_primary,2-Amino-3-aminomethyl-6-methyl-4-methoxymethylpyridine,9:12,amine_primary:amine_primary,9(amine_primary) > 12(amine_primary)
COCc1cc(C)c(CN)c(N)n1,8.96,9:11,amine_primary:amine_primary,2-Amino-3-aminomethyl-4-methyl-6-methoxymethylpyridine,9:11,amine_primary:amine_primary,9(amine_primary) > 11(amine_primary)
COCc1cc(C)c(CN)c(N)n1,5.41,9:11,amine_primary:amine_primary,2-Amino-3-aminomethyl-4-methyl-6-methoxymethylpyridine,9:11,amine_primary:amine_primary,9(amine_primary) > 11(amine_primary)
NCc1cccc(CN)n1,9.53,0:8,amine_primary:amine_primary,"2,6-Bis(aminomethyl)pyridine",0:8,amine_primary:amine_primary,0(amine_primary) > 8(amine_primary)
NCc1cccc(CN)n1,9.15,0:8,amine_primary:amine_primary,"2,6-Bis(aminomethyl)pyridine",0:8,amine_primary:amine_primary,0(amine_primary) > 8(amine_primary)
OCCNCCc1ccccn1,7.94,0:3,alcohol:amine_secondary,2-[2-(2-Hydroxyethylamino)ethyl]pyridine,3:0,amine_secondary:alcohol,3(amine_secondary) > 0(alcohol)
OCCNCCc1ccccn1,3.15,0:3,alcohol:amine_secondary,2-[2-(2-Hydroxyethylamino)ethyl]pyridine,3:0,amine_secondary:alcohol,3(amine_secondary) > 0(alcohol)
OCCN(CCO)Cc1ccccn1,6.92,0:6,alcohol:alcohol,Bis(2-hydroxyethyl)aminomethylpyridine,0:6,alcohol:alcohol,0(alcohol) > 6(alcohol)
OCCN(CCO)Cc1ccccn1,1.2,0:6,alcohol:alcohol,Bis(2-hydroxyethyl)aminomethylpyridine,0:6,alcohol:alcohol,0(alcohol) > 6(alcohol)
CC(C)(C)NCC(O)COc1ccccc1c2ccc(NN)nn2,9.24,21:4,amine_primary:amine_secondary,"3-Hydrazino-6{2-[3-(1,1-dimethylethylamino)-2-hydroxypropoxy]phenyl}-1,2-diazine (Prizidilol)",21:4,amine_primary:amine_secondary,21(amine_primary) > 4(amine_secondary)
CC(C)(C)NCC(O)COc1ccccc1c2ccc(NN)nn2,5.15,21:4,amine_primary:amine_secondary,"3-Hydrazino-6{2-[3-(1,1-dimethylethylamino)-2-hydroxypropoxy]phenyl}-1,2-diazine (Prizidilol)",21:4,amine_primary:amine_secondary,21(amine_primary) > 4(amine_secondary)
Oc1cccc2cccnc12,9.65,0:9,phenol:pyridine_nitrogen,8-Hydroxyquinoline (8-Quinolinol)(Oxine),0:9,phenol:pyridine_nitrogen,0(phenol) > 9(pyridine_nitrogen)
Oc1cccc2cccnc12,9.58,0:9,phenol:pyridine_nitrogen,8-Hydroxyquinoline (8-Quinolinol)(Oxine),0:9,phenol:pyridine_nitrogen,0(phenol) > 9(pyridine_nitrogen)
Oc1cccc2cccnc12,9.62,0:9,phenol:pyridine_nitrogen,8-Hydroxyquinoline (8-Quinolinol)(Oxine),0:9,phenol:pyridine_nitrogen,0(phenol) > 9(pyridine_nitrogen)
Oc1cccc2cccnc12,9.74,0:9,phenol:pyridine_nitrogen,8-Hydroxyquinoline (8-Quinolinol)(Oxine),0:9,phenol:pyridine_nitrogen,0(phenol) > 9(pyridine_nitrogen)
Oc1cccc2cccnc12,10.0,0:9,phenol:pyridine_nitrogen,8-Hydroxyquinoline (8-Quinolinol)(Oxine),0:9,phenol:pyridine_nitrogen,0(phenol) > 9(pyridine_nitrogen)
Oc1cccc2cccnc12,9.82,0:9,phenol:pyridine_nitrogen,8-Hydroxyquinoline (8-Quinolinol)(Oxine),0:9,phenol:pyridine_nitrogen,0(phenol) > 9(pyridine_nitrogen)
Oc1cccc2cccnc12,4.97,0:9,phenol:pyridine_nitrogen,8-Hydroxyquinoline (8-Quinolinol)(Oxine),0:9,phenol:pyridine_nitrogen,0(phenol) > 9(pyridine_nitrogen)
Oc1cccc2cccnc12,5.02,0:9,phenol:pyridine_nitrogen,8-Hydroxyquinoline (8-Quinolinol)(Oxine),0:9,phenol:pyridine_nitrogen,0(phenol) > 9(pyridine_nitrogen)
Oc1cccc2cccnc12,5.1,0:9,phenol:pyridine_nitrogen,8-Hydroxyquinoline (8-Quinolinol)(Oxine),0:9,phenol:pyridine_nitrogen,0(phenol) > 9(pyridine_nitrogen)
Oc1cccc2cccnc12,5.26,0:9,phenol:pyridine_nitrogen,8-Hydroxyquinoline (8-Quinolinol)(Oxine),0:9,phenol:pyridine_nitrogen,0(phenol) > 9(pyridine_nitrogen)
Oc1cccc2cccnc12,5.4,0:9,phenol:pyridine_nitrogen,8-Hydroxyquinoline (8-Quinolinol)(Oxine),0:9,phenol:pyridine_nitrogen,0(phenol) > 9(pyridine_nitrogen)
Oc1cccc2cccnc12,5.82,0:9,phenol:pyridine_nitrogen,8-Hydroxyquinoline (8-Quinolinol)(Oxine),0:9,phenol:pyridine_nitrogen,0(phenol) > 9(pyridine_nitrogen)
Oc1cccc2cccnc12,4.94,0:9,phenol:pyridine_nitrogen,8-Hydroxyquinoline (8-Quinolinol)(Oxine),0:9,phenol:pyridine_nitrogen,0(phenol) > 9(pyridine_nitrogen)
Oc1c(Br)cc(Br)c2cccnc12,7.3,0:10,phenol:pyridine_nitrogen,"5,7-Dibromo-8-hydroxyquinoline",0:10,phenol:pyridine_nitrogen,0(phenol) > 10(pyridine_nitrogen)
Oc1c(Br)cc(Br)c2cccnc12,2.6,0:10,phenol:pyridine_nitrogen,"5,7-Dibromo-8-hydroxyquinoline",0:10,phenol:pyridine_nitrogen,0(phenol) > 10(pyridine_nitrogen)
Oc1c(I)cc(I)c2cccnc12,8.0,0:10,phenol:pyridine_nitrogen,"5,7-Diiodo-8-hydroxyquinoline",0:10,phenol:pyridine_nitrogen,0(phenol) > 10(pyridine_nitrogen)
Oc1c(I)cc(I)c2cccnc12,2.7,0:10,phenol:pyridine_nitrogen,"5,7-Diiodo-8-hydroxyquinoline",0:10,phenol:pyridine_nitrogen,0(phenol) > 10(pyridine_nitrogen)
Oc1ccc(c2cccnc12)[S](O)(=O)=O,8.37,0:12,phenol:alcohol,8-Hydroxyquinoline-5-sulfonic acid (Sulfoxine),0:12,phenol:alcohol,0(phenol) > 12(alcohol)
Oc1ccc(c2cccnc12)[S](O)(=O)=O,8.18,0:12,phenol:alcohol,8-Hydroxyquinoline-5-sulfonic acid (Sulfoxine),0:12,phenol:alcohol,0(phenol) > 12(alcohol)
Oc1ccc(c2cccnc12)[S](O)(=O)=O,8.15,0:12,phenol:alcohol,8-Hydroxyquinoline-5-sulfonic acid (Sulfoxine),0:12,phenol:alcohol,0(phenol) > 12(alcohol)
Oc1ccc(c2cccnc12)[S](O)(=O)=O,8.16,0:12,phenol:alcohol,8-Hydroxyquinoline-5-sulfonic acid (Sulfoxine),0:12,phenol:alcohol,0(phenol) > 12(alcohol)
Oc1ccc(c2cccnc12)[S](O)(=O)=O,8.78,0:12,phenol:alcohol,8-Hydroxyquinoline-5-sulfonic acid (Sulfoxine),0:12,phenol:alcohol,0(phenol) > 12(alcohol)
Oc1ccc(c2cccnc12)[S](O)(=O)=O,3.9,0:12,phenol:alcohol,8-Hydroxyquinoline-5-sulfonic acid (Sulfoxine),0:12,phenol:alcohol,0(phenol) > 12(alcohol)
Oc1ccc(c2cccnc12)[S](O)(=O)=O,3.86,0:12,phenol:alcohol,8-Hydroxyquinoline-5-sulfonic acid (Sulfoxine),0:12,phenol:alcohol,0(phenol) > 12(alcohol)
Oc1ccc(c2cccnc12)[S](O)(=O)=O,3.94,0:12,phenol:alcohol,8-Hydroxyquinoline-5-sulfonic acid (Sulfoxine),0:12,phenol:alcohol,0(phenol) > 12(alcohol)
Oc1ccc(c2cccnc12)[S](O)(=O)=O,4.15,0:12,phenol:alcohol,8-Hydroxyquinoline-5-sulfonic acid (Sulfoxine),0:12,phenol:alcohol,0(phenol) > 12(alcohol)
Oc1ccc(c2cccnc12)[S](O)(=O)=O,4.1,0:12,phenol:alcohol,8-Hydroxyquinoline-5-sulfonic acid (Sulfoxine),0:12,phenol:alcohol,0(phenol) > 12(alcohol)
Cc1ccc2c(ccc(O)c2n1)[S](O)(=O)=O,8.72,9:13,phenol:alcohol,8-Hydroxy-2-methylquinoline-5-sulfonic acid,9:13,phenol:alcohol,9(phenol) > 13(alcohol)
Cc1ccc2c(ccc(O)c2n1)[S](O)(=O)=O,4.63,9:13,phenol:alcohol,8-Hydroxy-2-methylquinoline-5-sulfonic acid,9:13,phenol:alcohol,9(phenol) > 13(alcohol)
Oc1c(cc(c2cccnc12)[S](O)(=O)=O)N=O,5.52,0:12,phenol:alcohol,8-Hydroxy-7-nitrosoquinoline-5-sulfonic acid,0:12,phenol:alcohol,0(phenol) > 12(alcohol)
Oc1c(cc(c2cccnc12)[S](O)(=O)=O)N=O,1.81,0:12,phenol:alcohol,8-Hydroxy-7-nitrosoquinoline-5-sulfonic acid,0:12,phenol:alcohol,0(phenol) > 12(alcohol)
Oc1c(cc(c2cccnc12)[S](O)(=O)=O)[N+]([O-])=O,5.34,0:12,phenol:alcohol,8-Hydroxy-7-nitroquinoline-5-sulfonic acid,0:12,phenol:alcohol,0(phenol) > 12(alcohol)
Oc1c(cc(c2cccnc12)[S](O)(=O)=O)[N+]([O-])=O,5.18,0:12,phenol:alcohol,8-Hydroxy-7-nitroquinoline-5-sulfonic acid,0:12,phenol:alcohol,0(phenol) > 12(alcohol)
Oc1c(cc(c2cccnc12)[S](O)(=O)=O)[N+]([O-])=O,5.16,0:12,phenol:alcohol,8-Hydroxy-7-nitroquinoline-5-sulfonic acid,0:12,phenol:alcohol,0(phenol) > 12(alcohol)
Oc1c(cc(c2cccnc12)[S](O)(=O)=O)[N+]([O-])=O,5.28,0:12,phenol:alcohol,8-Hydroxy-7-nitroquinoline-5-sulfonic acid,0:12,phenol:alcohol,0(phenol) > 12(alcohol)
Oc1c(cc(c2cccnc12)[S](O)(=O)=O)[N+]([O-])=O,5.75,0:12,phenol:alcohol,8-Hydroxy-7-nitroquinoline-5-sulfonic acid,0:12,phenol:alcohol,0(phenol) > 12(alcohol)
Oc1c(cc(c2cccnc12)[S](O)(=O)=O)[N+]([O-])=O,1.72,0:12,phenol:alcohol,8-Hydroxy-7-nitroquinoline-5-sulfonic acid,0:12,phenol:alcohol,0(phenol) > 12(alcohol)
Oc1c(cc(c2cccnc12)[S](O)(=O)=O)[N+]([O-])=O,1.73,0:12,phenol:alcohol,8-Hydroxy-7-nitroquinoline-5-sulfonic acid,0:12,phenol:alcohol,0(phenol) > 12(alcohol)
Oc1c(cc(c2cccnc12)[S](O)(=O)=O)[N+]([O-])=O,1.76,0:12,phenol:alcohol,8-Hydroxy-7-nitroquinoline-5-sulfonic acid,0:12,phenol:alcohol,0(phenol) > 12(alcohol)
Oc1c(cc(c2cccnc12)[S](O)(=O)=O)[N+]([O-])=O,1.9,0:12,phenol:alcohol,8-Hydroxy-7-nitroquinoline-5-sulfonic acid,0:12,phenol:alcohol,0(phenol) > 12(alcohol)
Oc1c(cc(c2cccnc12)[S](O)(=O)=O)[N+]([O-])=O,1.95,0:12,phenol:alcohol,8-Hydroxy-7-nitroquinoline-5-sulfonic acid,0:12,phenol:alcohol,0(phenol) > 12(alcohol)
[Na+].[Na+].[O-][S](=O)(=O)c1ccc(N\N=C\2C=C(c3cccnc3C2=O)[S]([O-])(=O)=O)c4ccccc14,6.86,3:23:50:57,sulfonic_acid:sulfonic_acid:pyridine_nitrogen:sulfonic_acid,8-Hydroxy-7-(4-sulfo-1-naphthylazo)quinoline-5-sulfonic acid (SNAZOXS),3:23:57:50,sulfonic_acid:sulfonic_acid:sulfonic_acid:pyridine_nitrogen,3(sulfonic_acid) > 23(sulfonic_acid) > 57(sulfonic_acid) > 50(pyridine_nitrogen)
[Na+].[Na+].[O-][S](=O)(=O)c1ccc(N\N=C\2C=C(c3cccnc3C2=O)[S]([O-])(=O)=O)c4ccccc14,2.88,3:23:50:57,sulfonic_acid:sulfonic_acid:pyridine_nitrogen:sulfonic_acid,8-Hydroxy-7-(4-sulfo-1-naphthylazo)quinoline-5-sulfonic acid (SNAZOXS),3:23:57:50,sulfonic_acid:sulfonic_acid:sulfonic_acid:pyridine_nitrogen,3(sulfonic_acid) > 23(sulfonic_acid) > 57(sulfonic_acid) > 50(pyridine_nitrogen)
[Na+].[Na+].[O-][S](=O)(=O)c1ccc(N\N=C\2C=C(c3cccnc3C2=O)[S]([O-])(=O)=O)c4ccccc14,0.0,3:23:50:57,sulfonic_acid:sulfonic_acid:pyridine_nitrogen:sulfonic_acid,8-Hydroxy-7-(4-sulfo-1-naphthylazo)quinoline-5-sulfonic acid (SNAZOXS),3:23:57:50,sulfonic_acid:sulfonic_acid:sulfonic_acid:pyridine_nitrogen,3(sulfonic_acid) > 23(sulfonic_acid) > 57(sulfonic_acid) > 50(pyridine_nitrogen)
OC(=O)c1ccccc1N=Nc2cc(c3cccnc3c2O)[S](O)(=O)=O,9.02,0:21:23,carboxylic_acid:phenol:alcohol,8-Hydroxy-7-(2-carboxyphenylazo)quinoline-5-sulfonic acid,0:21:23,carboxylic_acid:phenol:alcohol,0(carboxylic_acid) > 21(phenol) > 23(alcohol)
OC(=O)c1ccccc1N=Nc2cc(c3cccnc3c2O)[S](O)(=O)=O,3.63,0:21:23,carboxylic_acid:phenol:alcohol,8-Hydroxy-7-(2-carboxyphenylazo)quinoline-5-sulfonic acid,0:21:23,carboxylic_acid:phenol:alcohol,0(carboxylic_acid) > 21(phenol) > 23(alcohol)
OC(=O)c1ccccc1N=Nc2cc(c3cccnc3c2O)[S](O)(=O)=O,3.34,0:21:23,carboxylic_acid:phenol:alcohol,8-Hydroxy-7-(2-carboxyphenylazo)quinoline-5-sulfonic acid,0:21:23,carboxylic_acid:phenol:alcohol,0(carboxylic_acid) > 21(phenol) > 23(alcohol)
Oc1cc(cc2cc(cc(N=Nc3cc(c4cccnc4c3O)[S](O)(=O)=O)c12)[S](O)(=O)=O)[S](O)(=O)=O,11.46,0:22:24,phenol:phenol:alcohol,"8-Hydroxy-7-(8-hydroxy-3,6-disulfo-1-naphthylazo)quinoline-5-sulfonic acid",0:22:24,phenol:phenol:alcohol,0(phenol) > 22(phenol) > 24(alcohol)
Oc1cc(cc2cc(cc(N=Nc3cc(c4cccnc4c3O)[S](O)(=O)=O)c12)[S](O)(=O)=O)[S](O)(=O)=O,8.33,0:22:24,phenol:phenol:alcohol,"8-Hydroxy-7-(8-hydroxy-3,6-disulfo-1-naphthylazo)quinoline-5-sulfonic acid",0:22:24,phenol:phenol:alcohol,0(phenol) > 22(phenol) > 24(alcohol)
Oc1cc(cc2cc(cc(N=Nc3cc(c4cccnc4c3O)[S](O)(=O)=O)c12)[S](O)(=O)=O)[S](O)(=O)=O,3.81,0:22:24,phenol:phenol:alcohol,"8-Hydroxy-7-(8-hydroxy-3,6-disulfo-1-naphthylazo)quinoline-5-sulfonic acid",0:22:24,phenol:phenol:alcohol,0(phenol) > 22(phenol) > 24(alcohol)
c1ccc(nc1)c2ccccn2,4.41,4:11,pyridine_nitrogen:pyridine_nitrogen,"2,2'-Bipyridyl",4:11,pyridine_nitrogen:pyridine_nitrogen,4(pyridine_nitrogen) > 11(pyridine_nitrogen)
c1ccc(nc1)c2ccccn2,4.53,4:11,pyridine_nitrogen:pyridine_nitrogen,"2,2'-Bipyridyl",4:11,pyridine_nitrogen:pyridine_nitrogen,4(pyridine_nitrogen) > 11(pyridine_nitrogen)
c1ccc(nc1)c2ccccn2,4.66,4:11,pyridine_nitrogen:pyridine_nitrogen,"2,2'-Bipyridyl",4:11,pyridine_nitrogen:pyridine_nitrogen,4(pyridine_nitrogen) > 11(pyridine_nitrogen)
c1ccc(nc1)c2ccccn2,4.95,4:11,pyridine_nitrogen:pyridine_nitrogen,"2,2'-Bipyridyl",4:11,pyridine_nitrogen:pyridine_nitrogen,4(pyridine_nitrogen) > 11(pyridine_nitrogen)
c1ccc(nc1)c2ccccn2,5.32,4:11,pyridine_nitrogen:pyridine_nitrogen,"2,2'-Bipyridyl",4:11,pyridine_nitrogen:pyridine_nitrogen,4(pyridine_nitrogen) > 11(pyridine_nitrogen)
c1ccc(nc1)c2ccccn2,4.34,4:11,pyridine_nitrogen:pyridine_nitrogen,"2,2'-Bipyridyl",4:11,pyridine_nitrogen:pyridine_nitrogen,4(pyridine_nitrogen) > 11(pyridine_nitrogen)
c1ccc(nc1)c2ccccn2,1.3,4:11,pyridine_nitrogen:pyridine_nitrogen,"2,2'-Bipyridyl",4:11,pyridine_nitrogen:pyridine_nitrogen,4(pyridine_nitrogen) > 11(pyridine_nitrogen)
C(c1ccccn1)c2ccccn2,5.18,6:12,pyridine_nitrogen:pyridine_nitrogen,Methylenedi-2-pyridine (Di-2-pyridylmethane),6:12,pyridine_nitrogen:pyridine_nitrogen,6(pyridine_nitrogen) > 12(pyridine_nitrogen)
C(c1ccccn1)c2ccccn2,2.69,6:12,pyridine_nitrogen:pyridine_nitrogen,Methylenedi-2-pyridine (Di-2-pyridylmethane),6:12,pyridine_nitrogen:pyridine_nitrogen,6(pyridine_nitrogen) > 12(pyridine_nitrogen)
C(Cc1ccccn1)c2ccccn2,5.8,7:13,pyridine_nitrogen:pyridine_nitrogen,"Ethylenedi-2-pyridine (1,2-Di-2-pyridylethane)",7:13,pyridine_nitrogen:pyridine_nitrogen,7(pyridine_nitrogen) > 13(pyridine_nitrogen)
C(Cc1ccccn1)c2ccccn2,3.99,7:13,pyridine_nitrogen:pyridine_nitrogen,"Ethylenedi-2-pyridine (1,2-Di-2-pyridylethane)",7:13,pyridine_nitrogen:pyridine_nitrogen,7(pyridine_nitrogen) > 13(pyridine_nitrogen)
C(Cc1ccccn1)Cc2ccccn2,6.15,7:14,pyridine_nitrogen:pyridine_nitrogen,"Trimethylenedi-2-pyridine (1,3-Di-2-pyridylpropane)",7:14,pyridine_nitrogen:pyridine_nitrogen,7(pyridine_nitrogen) > 14(pyridine_nitrogen)
C(Cc1ccccn1)Cc2ccccn2,4.8,7:14,pyridine_nitrogen:pyridine_nitrogen,"Trimethylenedi-2-pyridine (1,3-Di-2-pyridylpropane)",7:14,pyridine_nitrogen:pyridine_nitrogen,7(pyridine_nitrogen) > 14(pyridine_nitrogen)
C(CCc1ccccn1)Cc2ccccn2,6.25,8:15,pyridine_nitrogen:pyridine_nitrogen,"Tetramethylenedi-2-pyridine (1,4-Di-2-pyridylbutane)",8:15,pyridine_nitrogen:pyridine_nitrogen,8(pyridine_nitrogen) > 15(pyridine_nitrogen)
C(CCc1ccccn1)Cc2ccccn2,5.27,8:15,pyridine_nitrogen:pyridine_nitrogen,"Tetramethylenedi-2-pyridine (1,4-Di-2-pyridylbutane)",8:15,pyridine_nitrogen:pyridine_nitrogen,8(pyridine_nitrogen) > 15(pyridine_nitrogen)
C(CCc1ccccn1)CCc2ccccn2,6.33,8:16,pyridine_nitrogen:pyridine_nitrogen,"Pentamethylenedi-2-pyridine (1,5-Di-2-pyridylpentane)",8:16,pyridine_nitrogen:pyridine_nitrogen,8(pyridine_nitrogen) > 16(pyridine_nitrogen)
C(CCc1ccccn1)CCc2ccccn2,5.45,8:16,pyridine_nitrogen:pyridine_nitrogen,"Pentamethylenedi-2-pyridine (1,5-Di-2-pyridylpentane)",8:16,pyridine_nitrogen:pyridine_nitrogen,8(pyridine_nitrogen) > 16(pyridine_nitrogen)
C(CCCc1ccccn1)CCc2ccccn2,6.38,9:17,pyridine_nitrogen:pyridine_nitrogen,"Hexamethylenedi-2-pyridine (1,6-Di-2-pyridylhexane)",9:17,pyridine_nitrogen:pyridine_nitrogen,9(pyridine_nitrogen) > 17(pyridine_nitrogen)
C(CCCc1ccccn1)CCc2ccccn2,5.61,9:17,pyridine_nitrogen:pyridine_nitrogen,"Hexamethylenedi-2-pyridine (1,6-Di-2-pyridylhexane)",9:17,pyridine_nitrogen:pyridine_nitrogen,9(pyridine_nitrogen) > 17(pyridine_nitrogen)
c1ccc(C=Cc2ccccn2)nc1,4.95,11:12,pyridine_nitrogen:pyridine_nitrogen,"trans-Vinylenedi-2-pyridine (1,2-Di-2-pyridylethene)",11:12,pyridine_nitrogen:pyridine_nitrogen,11(pyridine_nitrogen) > 12(pyridine_nitrogen)
c1ccc(C=Cc2ccccn2)nc1,2.81,11:12,pyridine_nitrogen:pyridine_nitrogen,"trans-Vinylenedi-2-pyridine (1,2-Di-2-pyridylethene)",11:12,pyridine_nitrogen:pyridine_nitrogen,11(pyridine_nitrogen) > 12(pyridine_nitrogen)
c1cc(ccn1)C=Cc2ccncc2,5.65,5:11,pyridine_nitrogen:pyridine_nitrogen,"trans-Vinylenedi-4-pyridine (1,2-Di-4-pyridylethene)",5:11,pyridine_nitrogen:pyridine_nitrogen,5(pyridine_nitrogen) > 11(pyridine_nitrogen)
c1cc(ccn1)C=Cc2ccncc2,4.41,5:11,pyridine_nitrogen:pyridine_nitrogen,"trans-Vinylenedi-4-pyridine (1,2-Di-4-pyridylethene)",5:11,pyridine_nitrogen:pyridine_nitrogen,5(pyridine_nitrogen) > 11(pyridine_nitrogen)
NCc1cccc(n1)c2cccc(CN)n2,9.11,9:22,ring_nitrogen:ring_nitrogen,"6,6'-Bis(aminomethyl)-2,2'-bipyridyl",9:22,ring_nitrogen:ring_nitrogen,9(ring_nitrogen) > 22(ring_nitrogen)
NCc1cccc(n1)c2cccc(CN)n2,8.39,9:22,ring_nitrogen:ring_nitrogen,"6,6'-Bis(aminomethyl)-2,2'-bipyridyl",9:22,ring_nitrogen:ring_nitrogen,9(ring_nitrogen) > 22(ring_nitrogen)
NCc1cccc(n1)c2cccc(CN)n2,1.2,9:22,ring_nitrogen:ring_nitrogen,"6,6'-Bis(aminomethyl)-2,2'-bipyridyl",9:22,ring_nitrogen:ring_nitrogen,9(ring_nitrogen) > 22(ring_nitrogen)
c1cnc2c(c1)ccc3ncccc23,4.92,2:13,pyridine_nitrogen:pyridine_nitrogen,"1,10-Phenanthroline (Dipyridino[a,c]benzene)",2:13,pyridine_nitrogen:pyridine_nitrogen,2(pyridine_nitrogen) > 13(pyridine_nitrogen)
c1cnc2c(c1)ccc3ncccc23,5.03,2:13,pyridine_nitrogen:pyridine_nitrogen,"1,10-Phenanthroline (Dipyridino[a,c]benzene)",2:13,pyridine_nitrogen:pyridine_nitrogen,2(pyridine_nitrogen) > 13(pyridine_nitrogen)
c1cnc2c(c1)ccc3ncccc23,5.13,2:13,pyridine_nitrogen:pyridine_nitrogen,"1,10-Phenanthroline (Dipyridino[a,c]benzene)",2:13,pyridine_nitrogen:pyridine_nitrogen,2(pyridine_nitrogen) > 13(pyridine_nitrogen)
c1cnc2c(c1)ccc3ncccc23,5.82,2:13,pyridine_nitrogen:pyridine_nitrogen,"1,10-Phenanthroline (Dipyridino[a,c]benzene)",2:13,pyridine_nitrogen:pyridine_nitrogen,2(pyridine_nitrogen) > 13(pyridine_nitrogen)
c1cnc2c(c1)ccc3ncccc23,4.91,2:13,pyridine_nitrogen:pyridine_nitrogen,"1,10-Phenanthroline (Dipyridino[a,c]benzene)",2:13,pyridine_nitrogen:pyridine_nitrogen,2(pyridine_nitrogen) > 13(pyridine_nitrogen)
c1cnc2c(c1)ccc3ncccc23,1.8,2:13,pyridine_nitrogen:pyridine_nitrogen,"1,10-Phenanthroline (Dipyridino[a,c]benzene)",2:13,pyridine_nitrogen:pyridine_nitrogen,2(pyridine_nitrogen) > 13(pyridine_nitrogen)
c1cnc2c(c1)ccc3ncccc23,4.0,2:13,pyridine_nitrogen:pyridine_nitrogen,"1,7-Phenanthroline",2:13,pyridine_nitrogen:pyridine_nitrogen,2(pyridine_nitrogen) > 13(pyridine_nitrogen)