SMILES,pKa,Dissociable_Atoms,Functional_Group,Name
OC(=O)CN(CC(O)=O)c1cccc(c1)[S](O)(=O)=O,4.79,0:7,carboxylic_acid:carboxylic_acid,N-(3-Sulfophenyl)iminodiacetic acid
OC(=O)CN(CC(O)=O)c1cccc(c1)[S](O)(=O)=O,2.36,0:7,carboxylic_acid:carboxylic_acid,N-(3-Sulfophenyl)iminodiacetic acid
OC(=O)CN(CC(O)=O)c1ccc(cc1)[S](O)(=O)=O,4.54,0:7,carboxylic_acid:carboxylic_acid,N-(4-Sulfophenyl)iminodiacetic acid
OC(=O)CN(CC(O)=O)c1ccc(cc1)[S](O)(=O)=O,2.31,0:7,carboxylic_acid:carboxylic_acid,N-(4-Sulfophenyl)iminodiacetic acid
OC(=O)CN(CC(O)=O)c1ccc(c2ccccc12)[S](O)(=O)=O,3.92,0:7,carboxylic_acid:carboxylic_acid,N-(4-Sulfo-1-naphthyl)iminodiacetic acid
OC(=O)CN(CC(O)=O)c1ccc(c2ccccc12)[S](O)(=O)=O,2.76,0:7,carboxylic_acid:carboxylic_acid,N-(4-Sulfo-1-naphthyl)iminodiacetic acid
OC(=O)CN(CC(O)=O)c1ccccc1C(O)=O,7.73,0:7:16,carboxylic_acid:carboxylic_acid:carboxylic_acid,N-(2-Carboxyphenyl)iminodiacetic acid
OC(=O)CN(CC(O)=O)c1ccccc1C(O)=O,7.75,0:7:16,carboxylic_acid:carboxylic_acid:carboxylic_acid,N-(2-Carboxyphenyl)iminodiacetic acid
OC(=O)CN(CC(O)=O)c1ccccc1C(O)=O,2.99,0:7:16,carboxylic_acid:carboxylic_acid:carboxylic_acid,N-(2-Carboxyphenyl)iminodiacetic acid
OC(=O)CN(CC(O)=O)c1ccccc1C(O)=O,2.98,0:7:16,carboxylic_acid:carboxylic_acid:carboxylic_acid,N-(2-Carboxyphenyl)iminodiacetic acid
OC(=O)CN(CC(O)=O)c1ccccc1C(O)=O,2.2,0:7:16,carboxylic_acid:carboxylic_acid:carboxylic_acid,N-(2-Carboxyphenyl)iminodiacetic acid
OC(=O)CN(CC(O)=O)c1ccccc1C(O)=O,2.34,0:7:16,carboxylic_acid:carboxylic_acid:carboxylic_acid,N-(2-Carboxyphenyl)iminodiacetic acid
OC(=O)CN(CC(O)=O)c1cccc(c1)C(O)=O,5.1,0:7:16,carboxylic_acid:carboxylic_acid:carboxylic_acid,N-(3-Carboxyphenyl)iminodiacetic acid
OC(=O)CN(CC(O)=O)c1cccc(c1)C(O)=O,4.06,0:7:16,carboxylic_acid:carboxylic_acid:carboxylic_acid,N-(3-Carboxyphenyl)iminodiacetic acid
OC(=O)CN(CC(O)=O)c1cccc(c1)C(O)=O,2.4,0:7:16,carboxylic_acid:carboxylic_acid:carboxylic_acid,N-(3-Carboxyphenyl)iminodiacetic acid
OC(=O)CN(CC(O)=O)c1ccc(cc1)C(O)=O,5.2,0:7:16,carboxylic_acid:carboxylic_acid:carboxylic_acid,N-(4-Carboxyphenyl)iminodiacetic acid
OC(=O)CN(CC(O)=O)c1ccc(cc1)C(O)=O,4.28,0:7:16,carboxylic_acid:carboxylic_acid:carboxylic_acid,N-(4-Carboxyphenyl)iminodiacetic acid
OC(=O)CN(CC(O)=O)c1ccc(cc1)C(O)=O,2.31,0:7:16,carboxylic_acid:carboxylic_acid:carboxylic_acid,N-(4-Carboxyphenyl)iminodiacetic acid
OC(=O)CN(CC(O)=O)c1cc(ccc1C(O)=O)C(O)=O,7.54,7,tertiary_amine,"N-(2,5-Dicarboxyphenyl)iminodiacetic acid"
OC(=O)CN(CC(O)=O)c1cc(C(O)=O)c(O)cc1C(O)=O,8.61,0:7:13:16:20,carboxylic_acid:carboxylic_acid:carboxylic_acid:phenol:carboxylic_acid,"N-(4-Hydroxy-2,5-dicarboxyphenyl)iminodiacetic acid"
OC(=O)CN(CC(O)=O)c1cc(C(O)=O)c(O)cc1C(O)=O,3.18,0:7:13:16:20,carboxylic_acid:carboxylic_acid:carboxylic_acid:phenol:carboxylic_acid,"N-(4-Hydroxy-2,5-dicarboxyphenyl)iminodiacetic acid"
OC(=O)CN(CC(O)=O)c1cc(C(O)=O)c(O)cc1C(O)=O,2.2,0:7:13:16:20,carboxylic_acid:carboxylic_acid:carboxylic_acid:phenol:carboxylic_acid,"N-(4-Hydroxy-2,5-dicarboxyphenyl)iminodiacetic acid"
OC(=O)CN(CC(O)=O)c1cc(C(O)=O)c(O)cc1C(O)=O,1.6,0:7:13:16:20,carboxylic_acid:carboxylic_acid:carboxylic_acid:phenol:carboxylic_acid,"N-(4-Hydroxy-2,5-dicarboxyphenyl)iminodiacetic acid"
OC(=O)CN(CC(O)=O)c1ccccc1O,11.08,0:7:15,carboxylic_acid:carboxylic_acid:phenol,N-(2-Hydroxyphenyl)iminodiacetic acid
OC(=O)CN(CC(O)=O)c1ccccc1O,5.43,0:7:15,carboxylic_acid:carboxylic_acid:phenol,N-(2-Hydroxyphenyl)iminodiacetic acid
OC(=O)CN(CC(O)=O)c1ccccc1O,2.98,0:7:15,carboxylic_acid:carboxylic_acid:phenol,N-(2-Hydroxyphenyl)iminodiacetic acid
OC(=O)CN(CC(O)=O)c1cccc(O)c1,11.0,0:7:14,carboxylic_acid:carboxylic_acid:phenol,N-(3-Hydroxyphenyl)iminodiacetic acid
OC(=O)CN(CC(O)=O)c1cccc(O)c1,4.93,0:7:14,carboxylic_acid:carboxylic_acid:phenol,N-(3-Hydroxyphenyl)iminodiacetic acid
OC(=O)CN(CC(O)=O)c1cccc(O)c1,2.54,0:7:14,carboxylic_acid:carboxylic_acid:phenol,N-(3-Hydroxyphenyl)iminodiacetic acid
OC(=O)CN(CC(O)=O)c1ccc(O)cc1,10.92,0:7:13,carboxylic_acid:carboxylic_acid:phenol,N-(4-Hydroxyphenyl)iminodiacetic acid
OC(=O)CN(CC(O)=O)c1ccc(O)cc1,5.19,0:7:13,carboxylic_acid:carboxylic_acid:phenol,N-(4-Hydroxyphenyl)iminodiacetic acid
OC(=O)CN(CC(O)=O)c1ccc(O)cc1,2.22,0:7:13,carboxylic_acid:carboxylic_acid:phenol,N-(4-Hydroxyphenyl)iminodiacetic acid
OC(=O)CN(CC(O)=O)c1c(O)cc(c2ccccc12)[S](O)(=O)=O,8.85,0:7:11,carboxylic_acid:carboxylic_acid:phenol,N-(2-Hydroxy-4-sulfo-1-naphthyl)iminodiacetic acid
OC(=O)CN(CC(O)=O)c1c(O)cc(c2ccccc12)[S](O)(=O)=O,3.38,0:7:11,carboxylic_acid:carboxylic_acid:phenol,N-(2-Hydroxy-4-sulfo-1-naphthyl)iminodiacetic acid
OC(=O)CN(CC(O)=O)c1c(O)cc(c2ccccc12)[S](O)(=O)=O,2.16,0:7:11,carboxylic_acid:carboxylic_acid:phenol,N-(2-Hydroxy-4-sulfo-1-naphthyl)iminodiacetic acid
OC(=O)CN(CC(O)=O)c1ccc(c2cc(cc(O)c12)[S](O)(=O)=O)[S](O)(=O)=O,9.48,0:7:18,carboxylic_acid:carboxylic_acid:phenol,"N-(8-Hydroxy-4,6-disulfo-1-naphthyl)iminodiacetic acid"
OC(=O)CN(CC(O)=O)c1ccc(c2cc(cc(O)c12)[S](O)(=O)=O)[S](O)(=O)=O,3.87,0:7:18,carboxylic_acid:carboxylic_acid:phenol,"N-(8-Hydroxy-4,6-disulfo-1-naphthyl)iminodiacetic acid"
OC(=O)CN(CC(O)=O)c1ccc(c2cc(cc(O)c12)[S](O)(=O)=O)[S](O)(=O)=O,2.58,0:7:18,carboxylic_acid:carboxylic_acid:phenol,"N-(8-Hydroxy-4,6-disulfo-1-naphthyl)iminodiacetic acid"
COc1ccccc1N(CC(O)=O)CC(O)=O,5.58,11:15,carboxylic_acid:carboxylic_acid,N-(2-Methoxyphenyl)iminodiacetic acid
COc1ccccc1N(CC(O)=O)CC(O)=O,2.69,11:15,carboxylic_acid:carboxylic_acid,N-(2-Methoxyphenyl)iminodiacetic acid
OC(=O)CN(CC(O)=O)c1ccccc1S,9.54,0:7:15,carboxylic_acid:carboxylic_acid:thiol,N-(2-Mercaptophenyl)iminodiacetic acid
OC(=O)CN(CC(O)=O)c1ccccc1S,6.3,0:7:15,carboxylic_acid:carboxylic_acid:thiol,N-(2-Mercaptophenyl)iminodiacetic acid
OC(=O)CN(CC(O)=O)c1ccccc1S,2.85,0:7:15,carboxylic_acid:carboxylic_acid:thiol,N-(2-Mercaptophenyl)iminodiacetic acid
OC(=O)CNc1cc(C(O)=O)c(cc1C(O)=O)N(CC(O)=O)CC(O)=O,9.4,0:9:15:20:24,carboxylic_acid:carboxylic_acid:carboxylic_acid:carboxylic_acid:carboxylic_acid,"N-[2,5-Dicarboxy-4-(carboxymethylamino)phenyl]iminodiacetic acid"
OC(=O)CNc1cc(C(O)=O)c(cc1C(O)=O)N(CC(O)=O)CC(O)=O,4.48,0:9:15:20:24,carboxylic_acid:carboxylic_acid:carboxylic_acid:carboxylic_acid:carboxylic_acid,"N-[2,5-Dicarboxy-4-(carboxymethylamino)phenyl]iminodiacetic acid"
OC(=O)CNc1cc(C(O)=O)c(cc1C(O)=O)N(CC(O)=O)CC(O)=O,3.57,0:9:15:20:24,carboxylic_acid:carboxylic_acid:carboxylic_acid:carboxylic_acid:carboxylic_acid,"N-[2,5-Dicarboxy-4-(carboxymethylamino)phenyl]iminodiacetic acid"
OC(=O)CNc1cc(C(O)=O)c(cc1C(O)=O)N(CC(O)=O)CC(O)=O,2.67,0:9:15:20:24,carboxylic_acid:carboxylic_acid:carboxylic_acid:carboxylic_acid:carboxylic_acid,"N-[2,5-Dicarboxy-4-(carboxymethylamino)phenyl]iminodiacetic acid"
OC(=O)CNc1cc(C(O)=O)c(cc1C(O)=O)N(CC(O)=O)CC(O)=O,1.8,0:9:15:20:24,carboxylic_acid:carboxylic_acid:carboxylic_acid:carboxylic_acid:carboxylic_acid,"N-[2,5-Dicarboxy-4-(carboxymethylamino)phenyl]iminodiacetic acid"
OC(=O)CN(CC(O)=O)c1ccccc1N(CC(O)=O)CC(O)=O,6.67,7:25,tertiary_amine:tertiary_amine,"1,2-Phenylenedinitrilotetraacetic acid"
OC(=O)CN(CC(O)=O)c1ccccc1N(CC(O)=O)CC(O)=O,6.81,7:25,tertiary_amine:tertiary_amine,"1,2-Phenylenedinitrilotetraacetic acid"
OC(=O)CN(CC(O)=O)c1ccccc1N(CC(O)=O)CC(O)=O,6.42,7:25,tertiary_amine:tertiary_amine,"1,2-Phenylenedinitrilotetraacetic acid"
OC(=O)CN(CC(O)=O)c1ccccc1N(CC(O)=O)CC(O)=O,6.41,7:25,tertiary_amine:tertiary_amine,"1,2-Phenylenedinitrilotetraacetic acid"
OC(=O)CN(CC(O)=O)c1ccccc1N(CC(O)=O)CC(O)=O,4.81,7:25,tertiary_amine:tertiary_amine,"1,2-Phenylenedinitrilotetraacetic acid"
OC(=O)CN(CC(O)=O)c1ccccc1N(CC(O)=O)CC(O)=O,4.98,7:25,tertiary_amine:tertiary_amine,"1,2-Phenylenedinitrilotetraacetic acid"
OC(=O)CN(CC(O)=O)c1ccccc1N(CC(O)=O)CC(O)=O,4.58,7:25,tertiary_amine:tertiary_amine,"1,2-Phenylenedinitrilotetraacetic acid"
OC(=O)CN(CC(O)=O)c1ccccc1N(CC(O)=O)CC(O)=O,4.61,7:25,tertiary_amine:tertiary_amine,"1,2-Phenylenedinitrilotetraacetic acid"
OC(=O)CN(CC(O)=O)c1ccccc1N(CC(O)=O)CC(O)=O,3.66,7:25,tertiary_amine:tertiary_amine,"1,2-Phenylenedinitrilotetraacetic acid"
OC(=O)CN(CC(O)=O)c1ccccc1N(CC(O)=O)CC(O)=O,3.5,7:25,tertiary_amine:tertiary_amine,"1,2-Phenylenedinitrilotetraacetic acid"
OC(=O)CN(CC(O)=O)c1ccccc1N(CC(O)=O)CC(O)=O,3.53,7:25,tertiary_amine:tertiary_amine,"1,2-Phenylenedinitrilotetraacetic acid"
OC(=O)CN(CC(O)=O)c1ccccc1N(CC(O)=O)CC(O)=O,3.0,7:25,tertiary_amine:tertiary_amine,"1,2-Phenylenedinitrilotetraacetic acid"
OC(=O)CN(CC(O)=O)c1ccccc1N(CC(O)=O)CC(O)=O,2.92,7:25,tertiary_amine:tertiary_amine,"1,2-Phenylenedinitrilotetraacetic acid"
OC(=O)CN(CC(O)=O)c1ccccc1N(CC(O)=O)CC(O)=O,2.99,7:25,tertiary_amine:tertiary_amine,"1,2-Phenylenedinitrilotetraacetic acid"
OC(=O)CN(CC(O)=O)c1ccccc1N(CC(O)=O)CC(O)=O,0.6,7:25,tertiary_amine:tertiary_amine,"1,2-Phenylenedinitrilotetraacetic acid"
OC(=O)CN(CC(O)=O)c1ccccc1N(CC(O)=O)CC(O)=O,0.4,7:25,tertiary_amine:tertiary_amine,"1,2-Phenylenedinitrilotetraacetic acid"
OC(=O)CN(CC(O)=O)c1ccccc1N(CC(O)=O)CC(O)=O,0.3,7:25,tertiary_amine:tertiary_amine,"1,2-Phenylenedinitrilotetraacetic acid"
Cc1ccc(N(CC(O)=O)CC(O)=O)c(c1)N(CC(O)=O)CC(O)=O,7.02,8:12:19:23,carboxylic_acid:carboxylic_acid:carboxylic_acid:carboxylic_acid,"4-Methyl-1,2-phenylenedinitrilotetraacetic acid"
Cc1ccc(N(CC(O)=O)CC(O)=O)c(c1)N(CC(O)=O)CC(O)=O,7.04,8:12:19:23,carboxylic_acid:carboxylic_acid:carboxylic_acid:carboxylic_acid,"4-Methyl-1,2-phenylenedinitrilotetraacetic acid"
Cc1ccc(N(CC(O)=O)CC(O)=O)c(c1)N(CC(O)=O)CC(O)=O,6.78,8:12:19:23,carboxylic_acid:carboxylic_acid:carboxylic_acid:carboxylic_acid,"4-Methyl-1,2-phenylenedinitrilotetraacetic acid"
Cc1ccc(N(CC(O)=O)CC(O)=O)c(c1)N(CC(O)=O)CC(O)=O,4.75,8:12:19:23,carboxylic_acid:carboxylic_acid:carboxylic_acid:carboxylic_acid,"4-Methyl-1,2-phenylenedinitrilotetraacetic acid"
Cc1ccc(N(CC(O)=O)CC(O)=O)c(c1)N(CC(O)=O)CC(O)=O,4.91,8:12:19:23,carboxylic_acid:carboxylic_acid:carboxylic_acid:carboxylic_acid,"4-Methyl-1,2-phenylenedinitrilotetraacetic acid"
Cc1ccc(N(CC(O)=O)CC(O)=O)c(c1)N(CC(O)=O)CC(O)=O,4.62,8:12:19:23,carboxylic_acid:carboxylic_acid:carboxylic_acid:carboxylic_acid,"4-Methyl-1,2-phenylenedinitrilotetraacetic acid"
Cc1ccc(N(CC(O)=O)CC(O)=O)c(c1)N(CC(O)=O)CC(O)=O,3.55,8:12:19:23,carboxylic_acid:carboxylic_acid:carboxylic_acid:carboxylic_acid,"4-Methyl-1,2-phenylenedinitrilotetraacetic acid"
Cc1ccc(N(CC(O)=O)CC(O)=O)c(c1)N(CC(O)=O)CC(O)=O,3.51,8:12:19:23,carboxylic_acid:carboxylic_acid:carboxylic_acid:carboxylic_acid,"4-Methyl-1,2-phenylenedinitrilotetraacetic acid"
Cc1ccc(N(CC(O)=O)CC(O)=O)c(c1)N(CC(O)=O)CC(O)=O,2.85,8:12:19:23,carboxylic_acid:carboxylic_acid:carboxylic_acid:carboxylic_acid,"4-Methyl-1,2-phenylenedinitrilotetraacetic acid"
Cc1ccc(N(CC(O)=O)CC(O)=O)c(c1)N(CC(O)=O)CC(O)=O,2.92,8:12:19:23,carboxylic_acid:carboxylic_acid:carboxylic_acid:carboxylic_acid,"4-Methyl-1,2-phenylenedinitrilotetraacetic acid"
OC(=O)CN(CC(O)=O)c1cccc(c1)N(CC(O)=O)CC(O)=O,5.8,0:7:18:22,carboxylic_acid:carboxylic_acid:carboxylic_acid:carboxylic_acid,"1,3-Phenylenedinitrilotetraacetic acid"
OC(=O)CN(CC(O)=O)c1cccc(c1)N(CC(O)=O)CC(O)=O,5.51,0:7:18:22,carboxylic_acid:carboxylic_acid:carboxylic_acid:carboxylic_acid,"1,3-Phenylenedinitrilotetraacetic acid"
OC(=O)CN(CC(O)=O)c1cccc(c1)N(CC(O)=O)CC(O)=O,5.07,0:7:18:22,carboxylic_acid:carboxylic_acid:carboxylic_acid:carboxylic_acid,"1,3-Phenylenedinitrilotetraacetic acid"
OC(=O)CN(CC(O)=O)c1cccc(c1)N(CC(O)=O)CC(O)=O,4.85,0:7:18:22,carboxylic_acid:carboxylic_acid:carboxylic_acid:carboxylic_acid,"1,3-Phenylenedinitrilotetraacetic acid"
OC(=O)CN(CC(O)=O)c1cccc(c1)N(CC(O)=O)CC(O)=O,2.86,0:7:18:22,carboxylic_acid:carboxylic_acid:carboxylic_acid:carboxylic_acid,"1,3-Phenylenedinitrilotetraacetic acid"
OC(=O)CN(CC(O)=O)c1cccc(c1)N(CC(O)=O)CC(O)=O,2.82,0:7:18:22,carboxylic_acid:carboxylic_acid:carboxylic_acid:carboxylic_acid,"1,3-Phenylenedinitrilotetraacetic acid"
OC(=O)CN(CC(O)=O)c1cccc(c1)N(CC(O)=O)CC(O)=O,2.0,0:7:18:22,carboxylic_acid:carboxylic_acid:carboxylic_acid:carboxylic_acid,"1,3-Phenylenedinitrilotetraacetic acid"
Cc1c(cccc1N(CC(O)=O)CC(O)=O)N(CC(O)=O)CC(O)=O,6.14,10:28,tertiary_amine:tertiary_amine,"2-Methyl-1,3-phenylenedinitrilotetraacetic acid"
Cc1c(cccc1N(CC(O)=O)CC(O)=O)N(CC(O)=O)CC(O)=O,4.53,10:28,tertiary_amine:tertiary_amine,"2-Methyl-1,3-phenylenedinitrilotetraacetic acid"
Cc1c(cccc1N(CC(O)=O)CC(O)=O)N(CC(O)=O)CC(O)=O,3.44,10:28,tertiary_amine:tertiary_amine,"2-Methyl-1,3-phenylenedinitrilotetraacetic acid"
Cc1c(cccc1N(CC(O)=O)CC(O)=O)N(CC(O)=O)CC(O)=O,2.28,10:28,tertiary_amine:tertiary_amine,"2-Methyl-1,3-phenylenedinitrilotetraacetic acid"
Cc1c(cccc1N(CC(O)=O)CC(O)=O)N(CC(O)=O)CC(O)=O,1.9,10:28,tertiary_amine:tertiary_amine,"2-Methyl-1,3-phenylenedinitrilotetraacetic acid"
Cc1ccc(cc1N(CC(O)=O)CC(O)=O)N(CC(O)=O)CC(O)=O,6.58,10:14:19:23,carboxylic_acid:carboxylic_acid:carboxylic_acid:carboxylic_acid,"4-Methyl-1,3-phenylenedinitrilotetraacetic acid"
Cc1ccc(cc1N(CC(O)=O)CC(O)=O)N(CC(O)=O)CC(O)=O,4.82,10:14:19:23,carboxylic_acid:carboxylic_acid:carboxylic_acid:carboxylic_acid,"4-Methyl-1,3-phenylenedinitrilotetraacetic acid"
Cc1ccc(cc1N(CC(O)=O)CC(O)=O)N(CC(O)=O)CC(O)=O,3.0,10:14:19:23,carboxylic_acid:carboxylic_acid:carboxylic_acid:carboxylic_acid,"4-Methyl-1,3-phenylenedinitrilotetraacetic acid"
Cc1ccc(cc1N(CC(O)=O)CC(O)=O)N(CC(O)=O)CC(O)=O,2.16,10:14:19:23,carboxylic_acid:carboxylic_acid:carboxylic_acid:carboxylic_acid,"4-Methyl-1,3-phenylenedinitrilotetraacetic acid"
OC(=O)CN(CC(O)=O)c1ccc(cc1)N(CC(O)=O)CC(O)=O,6.06,0:7:18:22,carboxylic_acid:carboxylic_acid:carboxylic_acid:carboxylic_acid,"1,4-Phenylenedinitrilotetraacetic acid"
OC(=O)CN(CC(O)=O)c1ccc(cc1)N(CC(O)=O)CC(O)=O,5.65,0:7:18:22,carboxylic_acid:carboxylic_acid:carboxylic_acid:carboxylic_acid,"1,4-Phenylenedinitrilotetraacetic acid"
OC(=O)CN(CC(O)=O)c1ccc(cc1)N(CC(O)=O)CC(O)=O,4.92,0:7:18:22,carboxylic_acid:carboxylic_acid:carboxylic_acid:carboxylic_acid,"1,4-Phenylenedinitrilotetraacetic acid"
OC(=O)CN(CC(O)=O)c1ccc(cc1)N(CC(O)=O)CC(O)=O,4.61,0:7:18:22,carboxylic_acid:carboxylic_acid:carboxylic_acid:carboxylic_acid,"1,4-Phenylenedinitrilotetraacetic acid"
OC(=O)CN(CC(O)=O)c1ccc(cc1)N(CC(O)=O)CC(O)=O,2.85,0:7:18:22,carboxylic_acid:carboxylic_acid:carboxylic_acid:carboxylic_acid,"1,4-Phenylenedinitrilotetraacetic acid"
OC(=O)CN(CC(O)=O)c1ccc(cc1)N(CC(O)=O)CC(O)=O,5.76,0:7:18:22,carboxylic_acid:carboxylic_acid:carboxylic_acid:carboxylic_acid,"1,4-Phenylenedinitrilotetraacetic acid"
OC(=O)CN(CC(O)=O)c1ccc(cc1)N(CC(O)=O)CC(O)=O,1.8,0:7:18:22,carboxylic_acid:carboxylic_acid:carboxylic_acid:carboxylic_acid,"1,4-Phenylenedinitrilotetraacetic acid"
OC(=O)CN(CC(O)=O)c1ccc(cc1)N(CC(O)=O)CC(O)=O,2.1,0:7:18:22,carboxylic_acid:carboxylic_acid:carboxylic_acid:carboxylic_acid,"1,4-Phenylenedinitrilotetraacetic acid"
Cc1cc(ccc1N(CC(O)=O)CC(O)=O)N(CC(O)=O)CC(O)=O,7.1,10:14:19:23,carboxylic_acid:carboxylic_acid:carboxylic_acid:carboxylic_acid,"2-Methyl-1,4-phenylenedinitrilotetraacetic acid"
Cc1cc(ccc1N(CC(O)=O)CC(O)=O)N(CC(O)=O)CC(O)=O,4.96,10:14:19:23,carboxylic_acid:carboxylic_acid:carboxylic_acid:carboxylic_acid,"2-Methyl-1,4-phenylenedinitrilotetraacetic acid"
Cc1cc(ccc1N(CC(O)=O)CC(O)=O)N(CC(O)=O)CC(O)=O,3.07,10:14:19:23,carboxylic_acid:carboxylic_acid:carboxylic_acid:carboxylic_acid,"2-Methyl-1,4-phenylenedinitrilotetraacetic acid"
Cc1cc(ccc1N(CC(O)=O)CC(O)=O)N(CC(O)=O)CC(O)=O,2.27,10:14:19:23,carboxylic_acid:carboxylic_acid:carboxylic_acid:carboxylic_acid,"2-Methyl-1,4-phenylenedinitrilotetraacetic acid"
OC(=O)c1ccccn1,5.21,8,pyridine_nitrogen,Pyridine-2-carboxylic acid (Picolinic acid)
OC(=O)c1ccccn1,5.18,8,pyridine_nitrogen,Pyridine-2-carboxylic acid (Picolinic acid)
OC(=O)c1ccccn1,5.29,8,pyridine_nitrogen,Pyridine-2-carboxylic acid (Picolinic acid)
OC(=O)c1ccccn1,5.36,8,pyridine_nitrogen,Pyridine-2-carboxylic acid (Picolinic acid)
OC(=O)c1ccccn1,5.8,8,pyridine_nitrogen,Pyridine-2-carboxylic acid (Picolinic acid)
OC(=O)c1ccccn1,5.93,8,pyridine_nitrogen,Pyridine-2-carboxylic acid (Picolinic acid)
OC(=O)c1ccccn1,5.39,8,pyridine_nitrogen,Pyridine-2-carboxylic acid (Picolinic acid)
OC(=O)c1ccccn1,0.95,8,pyridine_nitrogen,Pyridine-2-carboxylic acid (Picolinic acid)
OC(=O)c1ccccn1,0.86,8,pyridine_nitrogen,Pyridine-2-carboxylic acid (Picolinic acid)
OC(=O)c1ccccn1,1.36,8,pyridine_nitrogen,Pyridine-2-carboxylic acid (Picolinic acid)
OC(=O)c1ccccn1,1.99,8,pyridine_nitrogen,Pyridine-2-carboxylic acid (Picolinic acid)
OC(=O)c1ccccn1,1.01,8,pyridine_nitrogen,Pyridine-2-carboxylic acid (Picolinic acid)
Cc1cccc(n1)C(O)=O,5.86,8,ring_nitrogen,6-Methylpyridine-2-carboxylic acid
Cc1cccc(n1)C(O)=O,5.95,8,ring_nitrogen,6-Methylpyridine-2-carboxylic acid
Cc1cccc(n1)C(O)=O,1.2,8,ring_nitrogen,6-Methylpyridine-2-carboxylic acid
OC(=O)c1ccc2ccccc2n1,4.77,18,ring_nitrogen,Quinoline-2-carboxylic acid (Quinaldic acid)
OC(=O)c1ccc2ccccc2n1,4.67,18,ring_nitrogen,Quinoline-2-carboxylic acid (Quinaldic acid)
OC(=O)c1ccc2ccccc2n1,4.68,18,ring_nitrogen,Quinoline-2-carboxylic acid (Quinaldic acid)
OC(=O)c1ccc2ccccc2n1,4.62,18,ring_nitrogen,Quinoline-2-carboxylic acid (Quinaldic acid)
OC(=O)c1ccc2ccccc2n1,4.76,18,ring_nitrogen,Quinoline-2-carboxylic acid (Quinaldic acid)
OC(=O)c1ccc2ccccc2n1,5.0,18,ring_nitrogen,Quinoline-2-carboxylic acid (Quinaldic acid)
OC(=O)c1ccc2ccccc2n1,5.58,18,ring_nitrogen,Quinoline-2-carboxylic acid (Quinaldic acid)
OC(=O)c1ccc2ccccc2n1,4.97,18,ring_nitrogen,Quinoline-2-carboxylic acid (Quinaldic acid)
OC(=O)c1ccc2ccccc2n1,1.9,18,ring_nitrogen,Quinoline-2-carboxylic acid (Quinaldic acid)
OC(=O)c1ccc2ccccc2n1,2.17,18,ring_nitrogen,Quinoline-2-carboxylic acid (Quinaldic acid)
OC(=O)c1cccc[n+]1[O-],3.31,0,carboxylic_acid,Pyridine-2-carboxylic acid N-oxide
OC(=O)c1cccc2cccnc12,6.66,1:10,carboxylic_acid:pyridine_nitrogen,Quinoline-8-carboxylic acid
OC(=O)c1cccc2cccnc12,6.59,1:10,carboxylic_acid:pyridine_nitrogen,Quinoline-8-carboxylic acid
OC(=O)c1cccc2cccnc12,6.64,1:10,carboxylic_acid:pyridine_nitrogen,Quinoline-8-carboxylic acid
OC(=O)c1cccc2cccnc12,6.58,1:10,carboxylic_acid:pyridine_nitrogen,Quinoline-8-carboxylic acid
OC(=O)c1cccc2cccnc12,6.68,1:10,carboxylic_acid:pyridine_nitrogen,Quinoline-8-carboxylic acid
OC(=O)c1cccc2cccnc12,7.01,1:10,carboxylic_acid:pyridine_nitrogen,Quinoline-8-carboxylic acid
OC(=O)c1cccc2cccnc12,6.87,1:10,carboxylic_acid:pyridine_nitrogen,Quinoline-8-carboxylic acid
OC(=O)c1cccc2cccnc12,1.9,1:10,carboxylic_acid:pyridine_nitrogen,Quinoline-8-carboxylic acid
OC(=O)c1cccc2cccnc12,1.95,1:10,carboxylic_acid:pyridine_nitrogen,Quinoline-8-carboxylic acid
OC(=O)c1cccc2cccnc12,1.8,1:10,carboxylic_acid:pyridine_nitrogen,Quinoline-8-carboxylic acid
OC(=O)c1cccnc1C(O)=O,4.72,0:10,carboxylic_acid:carboxylic_acid,"Pyridine-2,3-dicarboxylic acid (Quinolinic acid)"
OC(=O)c1cccnc1C(O)=O,4.58,0:10,carboxylic_acid:carboxylic_acid,"Pyridine-2,3-dicarboxylic acid (Quinolinic acid)"
OC(=O)c1cccnc1C(O)=O,5.1,0:10,carboxylic_acid:carboxylic_acid,"Pyridine-2,3-dicarboxylic acid (Quinolinic acid)"
OC(=O)c1cccnc1C(O)=O,2.36,0:10,carboxylic_acid:carboxylic_acid,"Pyridine-2,3-dicarboxylic acid (Quinolinic acid)"
OC(=O)c1cccnc1C(O)=O,2.3,0:10,carboxylic_acid:carboxylic_acid,"Pyridine-2,3-dicarboxylic acid (Quinolinic acid)"
OC(=O)c1cccnc1C(O)=O,2.44,0:10,carboxylic_acid:carboxylic_acid,"Pyridine-2,3-dicarboxylic acid (Quinolinic acid)"
OC(=O)c1ccc(nc1)C(O)=O,4.58,0:10,carboxylic_acid:carboxylic_acid,"Pyridine-2,5-dicarboxylic acid (Isocinchomeronic acid)"
OC(=O)c1ccc(nc1)C(O)=O,4.63,0:10,carboxylic_acid:carboxylic_acid,"Pyridine-2,5-dicarboxylic acid (Isocinchomeronic acid)"
OC(=O)c1ccc(nc1)C(O)=O,5.02,0:10,carboxylic_acid:carboxylic_acid,"Pyridine-2,5-dicarboxylic acid (Isocinchomeronic acid)"
OC(=O)c1ccc(nc1)C(O)=O,2.17,0:10,carboxylic_acid:carboxylic_acid,"Pyridine-2,5-dicarboxylic acid (Isocinchomeronic acid)"
OC(=O)c1ccc(nc1)C(O)=O,2.35,0:10,carboxylic_acid:carboxylic_acid,"Pyridine-2,5-dicarboxylic acid (Isocinchomeronic acid)"
OC(=O)c1ccc(nc1)C(O)=O,2.38,0:10,carboxylic_acid:carboxylic_acid,"Pyridine-2,5-dicarboxylic acid (Isocinchomeronic acid)"
OC(=O)c1cccc(n1)C(O)=O,4.66,0:10,carboxylic_acid:carboxylic_acid,"Pyridine-2,6-dicarboxylic acid (Dipicolinic acid)"