SMILES,pKa,Dissociable_Atoms,Functional_Group,Name
NCCCC[C@H](N)C(=O)N[C@H](CCCCN)C(O)=O,10.78,17:0:6:15,carboxylic_acid:amine_primary:amine_primary:amine_primary,L-Lysyl-D-lysine
NCCCC[C@H](N)C(=O)N[C@H](CCCCN)C(O)=O,9.81,17:0:6:15,carboxylic_acid:amine_primary:amine_primary:amine_primary,L-Lysyl-D-lysine
NCCCC[C@H](N)C(=O)N[C@H](CCCCN)C(O)=O,7.42,17:0:6:15,carboxylic_acid:amine_primary:amine_primary:amine_primary,L-Lysyl-D-lysine
NCCCC[C@H](N)C(=O)N[C@H](CCCCN)C(O)=O,2.74,17:0:6:15,carboxylic_acid:amine_primary:amine_primary:amine_primary,L-Lysyl-D-lysine
NCCCC[C@H](NC(=O)[C@@H](N)Cc1c[nH]cn1)C(O)=O,10.09,18:0:10:6,carboxylic_acid:amine_primary:amine_primary:amine_secondary,L-Histidyl-L-lysine
NCCCC[C@H](NC(=O)[C@@H](N)Cc1c[nH]cn1)C(O)=O,7.29,18:0:10:6,carboxylic_acid:amine_primary:amine_primary:amine_secondary,L-Histidyl-L-lysine
NCCCC[C@H](NC(=O)[C@@H](N)Cc1c[nH]cn1)C(O)=O,5.65,18:0:10:6,carboxylic_acid:amine_primary:amine_primary:amine_secondary,L-Histidyl-L-lysine
NCCCC[C@H](NC(=O)[C@@H](N)Cc1c[nH]cn1)C(O)=O,2.0,18:0:10:6,carboxylic_acid:amine_primary:amine_primary:amine_secondary,L-Histidyl-L-lysine
OC(=O)[C@H](Cc1c[nH]cn1)NC(=O)[C@@H]2CCC(=O)N2,7.18,0:7,carboxylic_acid:amine_secondary,L-Pyroglutamyl-L-histidine
OC(=O)[C@H](Cc1c[nH]cn1)NC(=O)[C@@H]2CCC(=O)N2,2.7,0:7,carboxylic_acid:amine_secondary,L-Pyroglutamyl-L-histidine
N[C@@H](Cc1c[nH]cn1)C(=O)N[C@@H](Cc2c[nH]cn2)C(O)=O,7.52,19:0:5:10,carboxylic_acid:amine_primary:amine_secondary:amine_secondary,L-Histidyl-L-histidine
N[C@@H](Cc1c[nH]cn1)C(=O)N[C@@H](Cc2c[nH]cn2)C(O)=O,6.7,19:0:5:10,carboxylic_acid:amine_primary:amine_secondary:amine_secondary,L-Histidyl-L-histidine
N[C@@H](Cc1c[nH]cn1)C(=O)N[C@@H](Cc2c[nH]cn2)C(O)=O,5.66,19:0:5:10,carboxylic_acid:amine_primary:amine_secondary:amine_secondary,L-Histidyl-L-histidine
N[C@@H](Cc1c[nH]cn1)C(=O)N[C@@H](Cc2c[nH]cn2)C(O)=O,2.6,19:0:5:10,carboxylic_acid:amine_primary:amine_secondary:amine_secondary,L-Histidyl-L-histidine
N[C@H](Cc1c[nH]cn1)C(=O)N[C@@H](Cc2c[nH]cn2)C(O)=O,7.82,19:0:5:10,carboxylic_acid:amine_primary:amine_secondary:amine_secondary,D-Histidyl-L-histidine
N[C@H](Cc1c[nH]cn1)C(=O)N[C@@H](Cc2c[nH]cn2)C(O)=O,7.4,19:0:5:10,carboxylic_acid:amine_primary:amine_secondary:amine_secondary,D-Histidyl-L-histidine
N[C@H](Cc1c[nH]cn1)C(=O)N[C@@H](Cc2c[nH]cn2)C(O)=O,6.73,19:0:5:10,carboxylic_acid:amine_primary:amine_secondary:amine_secondary,D-Histidyl-L-histidine
N[C@H](Cc1c[nH]cn1)C(=O)N[C@@H](Cc2c[nH]cn2)C(O)=O,6.43,19:0:5:10,carboxylic_acid:amine_primary:amine_secondary:amine_secondary,D-Histidyl-L-histidine
N[C@H](Cc1c[nH]cn1)C(=O)N[C@@H](Cc2c[nH]cn2)C(O)=O,5.32,19:0:5:10,carboxylic_acid:amine_primary:amine_secondary:amine_secondary,D-Histidyl-L-histidine
N[C@H](Cc1c[nH]cn1)C(=O)N[C@@H](Cc2c[nH]cn2)C(O)=O,5.03,19:0:5:10,carboxylic_acid:amine_primary:amine_secondary:amine_secondary,D-Histidyl-L-histidine
N[C@H](Cc1c[nH]cn1)C(=O)N[C@@H](Cc2c[nH]cn2)C(O)=O,2.18,19:0:5:10,carboxylic_acid:amine_primary:amine_secondary:amine_secondary,D-Histidyl-L-histidine
N[C@H](Cc1c[nH]cn1)C(=O)N[C@@H](Cc2c[nH]cn2)C(O)=O,2.11,19:0:5:10,carboxylic_acid:amine_primary:amine_secondary:amine_secondary,D-Histidyl-L-histidine
OC(=O)[C@H](Cc1c[nH]cn1)NC(=O)CS,8.7,0:7:10,carboxylic_acid:amine_secondary:amine_secondary,N-(Mercaptoacetyl)-L-histidine
OC(=O)[C@H](Cc1c[nH]cn1)NC(=O)CS,7.14,0:7:10,carboxylic_acid:amine_secondary:amine_secondary,N-(Mercaptoacetyl)-L-histidine
OC(=O)[C@H](Cc1c[nH]cn1)NC(=O)CS,3.43,0:7:10,carboxylic_acid:amine_secondary:amine_secondary,N-(Mercaptoacetyl)-L-histidine
OC(=O)[C@H](Cc1c[nH]cn1)NC(=O)CCS,9.86,0:7:10,carboxylic_acid:amine_secondary:amine_secondary,N-(3-Mercaptopropionyl)-L-histidine
OC(=O)[C@H](Cc1c[nH]cn1)NC(=O)CCS,7.25,0:7:10,carboxylic_acid:amine_secondary:amine_secondary,N-(3-Mercaptopropionyl)-L-histidine
OC(=O)[C@H](Cc1c[nH]cn1)NC(=O)CCS,3.48,0:7:10,carboxylic_acid:amine_secondary:amine_secondary,N-(3-Mercaptopropionyl)-L-histidine
CSCC[C@H](N)C(=O)N[C@@H](CCSC)C(O)=O,7.41,15:5,carboxylic_acid:amine_primary,L-Methionyl-L-methionine
CSCC[C@H](N)C(=O)N[C@@H](CCSC)C(O)=O,3.22,15:5,carboxylic_acid:amine_primary,L-Methionyl-L-methionine
CSCC[C@H](N)C(=O)N[C@H](CCSC)C(O)=O,7.59,15:5,carboxylic_acid:amine_primary,L-Methionyl-D-methionine
CSCC[C@H](N)C(=O)N[C@H](CCSC)C(O)=O,2.98,15:5,carboxylic_acid:amine_primary,L-Methionyl-D-methionine
CSCC[C@H](N)C(=O)N[C@@H](Cc1c[nH]cn1)C(O)=O,7.59,17:5:8,carboxylic_acid:amine_primary:amine_secondary,L-Methionyl-L-histidine
CSCC[C@H](N)C(=O)N[C@@H](Cc1c[nH]cn1)C(O)=O,6.57,17:5:8,carboxylic_acid:amine_primary:amine_secondary,L-Methionyl-L-histidine
CSCC[C@H](N)C(=O)N[C@@H](Cc1c[nH]cn1)C(O)=O,2.96,17:5:8,carboxylic_acid:amine_primary:amine_secondary,L-Methionyl-L-histidine
CSCC[C@H](NC(=O)[C@@H](N)Cc1c[nH]cn1)C(O)=O,7.5,17:9:5,carboxylic_acid:amine_primary:amine_secondary,L-Histidyl-L-methionine
CSCC[C@H](NC(=O)[C@@H](N)Cc1c[nH]cn1)C(O)=O,6.0,17:9:5,carboxylic_acid:amine_primary:amine_secondary,L-Histidyl-L-methionine
CSCC[C@H](NC(=O)[C@@H](N)Cc1c[nH]cn1)C(O)=O,2.58,17:9:5,carboxylic_acid:amine_primary:amine_secondary,L-Histidyl-L-methionine
NCC(=O)NCC(=O)NCC(O)=O,7.89,11:0,carboxylic_acid:amine_primary,Glycylglycylglycine (Triglycine)
NCC(=O)NCC(=O)NCC(O)=O,7.58,11:0,carboxylic_acid:amine_primary,Glycylglycylglycine (Triglycine)
NCC(=O)NCC(=O)NCC(O)=O,7.99,11:0,carboxylic_acid:amine_primary,Glycylglycylglycine (Triglycine)
NCC(=O)NCC(=O)NCC(O)=O,8.27,11:0,carboxylic_acid:amine_primary,Glycylglycylglycine (Triglycine)
NCC(=O)NCC(=O)NCC(O)=O,8.3,11:0,carboxylic_acid:amine_primary,Glycylglycylglycine (Triglycine)
NCC(=O)NCC(=O)NCC(O)=O,8.57,11:0,carboxylic_acid:amine_primary,Glycylglycylglycine (Triglycine)
NCC(=O)NCC(=O)NCC(O)=O,8.34,11:0,carboxylic_acid:amine_primary,Glycylglycylglycine (Triglycine)
NCC(=O)NCC(=O)NCC(O)=O,8.088,11:0,carboxylic_acid:amine_primary,Glycylglycylglycine (Triglycine)
NCC(=O)NCC(=O)NCC(O)=O,7.83,11:0,carboxylic_acid:amine_primary,Glycylglycylglycine (Triglycine)
NCC(=O)NCC(=O)NCC(O)=O,3.21,11:0,carboxylic_acid:amine_primary,Glycylglycylglycine (Triglycine)
NCC(=O)NCC(=O)NCC(O)=O,3.19,11:0,carboxylic_acid:amine_primary,Glycylglycylglycine (Triglycine)
NCC(=O)NCC(=O)NCC(O)=O,3.2,11:0,carboxylic_acid:amine_primary,Glycylglycylglycine (Triglycine)
NCC(=O)NCC(=O)NCC(O)=O,3.42,11:0,carboxylic_acid:amine_primary,Glycylglycylglycine (Triglycine)
NCC(=O)NCC(=O)NCC(O)=O,3.39,11:0,carboxylic_acid:amine_primary,Glycylglycylglycine (Triglycine)
NCC(=O)NCC(=O)NCC(O)=O,3.6,11:0,carboxylic_acid:amine_primary,Glycylglycylglycine (Triglycine)
NCC(=O)NCC(=O)NCC(O)=O,3.236,11:0,carboxylic_acid:amine_primary,Glycylglycylglycine (Triglycine)
NCC(=O)NCC(=O)NCC(O)=O,3.224,11:0,carboxylic_acid:amine_primary,Glycylglycylglycine (Triglycine)
NCC(=O)NCC(=O)NCC(O)=O,3.202,11:0,carboxylic_acid:amine_primary,Glycylglycylglycine (Triglycine)
NCC(=O)NCC(=O)NCCC(O)=O,7.89,12:0,carboxylic_acid:amine_primary,Glycylglycyl-beta-alanine
NCC(=O)NCC(=O)NCCC(O)=O,4.04,12:0,carboxylic_acid:amine_primary,Glycylglycyl-beta-alanine
NCC(=O)NCCC(=O)NCC(O)=O,8.05,12:0,carboxylic_acid:amine_primary,Glycyl-beta-alanylglycine
NCC(=O)NCCC(=O)NCC(O)=O,3.3,12:0,carboxylic_acid:amine_primary,Glycyl-beta-alanylglycine
NCCC(=O)NCC(=O)NCC(O)=O,9.25,12:0,carboxylic_acid:amine_primary,beta-Alanylglycylglycine
NCCC(=O)NCC(=O)NCC(O)=O,3.19,12:0,carboxylic_acid:amine_primary,beta-Alanylglycylglycine
C[C@H](NC(=O)CNC(=O)CN)C(O)=O,7.9,12:10,carboxylic_acid:amine_primary,Glycylglycyl-L-alanine
C[C@H](NC(=O)CNC(=O)CN)C(O)=O,3.18,12:10,carboxylic_acid:amine_primary,Glycylglycyl-L-alanine
C[C@H](NC(=O)CN)C(=O)NCC(O)=O,7.96,12:6,carboxylic_acid:amine_primary,Glycyl-L-alanylglycine
C[C@H](NC(=O)CN)C(=O)NCC(O)=O,3.34,12:6,carboxylic_acid:amine_primary,Glycyl-L-alanylglycine
C[C@H](N)C(=O)NCC(=O)NCC(O)=O,7.89,12:2,carboxylic_acid:amine_primary,L-Alanylglycylglycine
C[C@H](N)C(=O)NCC(=O)NCC(O)=O,3.27,12:2,carboxylic_acid:amine_primary,L-Alanylglycylglycine
C[C@H](NC(=O)[C@H](C)NC(=O)CN)C(O)=O,7.99,13:11,carboxylic_acid:amine_primary,Glycyl-L-alanyl-L-alanine
C[C@H](NC(=O)[C@H](C)NC(=O)CN)C(O)=O,3.27,13:11,carboxylic_acid:amine_primary,Glycyl-L-alanyl-L-alanine
C[C@@H](NC(=O)[C@H](C)NC(=O)CN)C(O)=O,8.06,13:11,carboxylic_acid:amine_primary,Glycyl-L-alanyl-D-alanine
C[C@@H](NC(=O)[C@H](C)NC(=O)CN)C(O)=O,3.19,13:11,carboxylic_acid:amine_primary,Glycyl-L-alanyl-D-alanine
C[C@H](N)C(=O)N[C@@H](C)C(=O)N[C@@H](C)C(O)=O,7.92,14:2,carboxylic_acid:amine_primary,L-Alanyl-L-alanyl-L-alanine
C[C@H](N)C(=O)N[C@@H](C)C(=O)N[C@@H](C)C(O)=O,3.28,14:2,carboxylic_acid:amine_primary,L-Alanyl-L-alanyl-L-alanine
C[C@H](N)C(=O)N[C@@H](C)C(=O)N[C@H](C)C(O)=O,7.94,14:2,carboxylic_acid:amine_primary,L-Alanyl-L-alanyl-D-alanine
C[C@H](N)C(=O)N[C@@H](C)C(=O)N[C@H](C)C(O)=O,3.26,14:2,carboxylic_acid:amine_primary,L-Alanyl-L-alanyl-D-alanine
C[C@H](N)C(=O)N[C@H](C)C(=O)N[C@@H](C)C(O)=O,8.02,14:2,carboxylic_acid:amine_primary,L-Alanyl-D-alanyl-L-alanine
C[C@H](N)C(=O)N[C@H](C)C(=O)N[C@@H](C)C(O)=O,3.2,14:2,carboxylic_acid:amine_primary,L-Alanyl-D-alanyl-L-alanine
C[C@@H](N)C(=O)N[C@@H](C)C(=O)N[C@@H](C)C(O)=O,7.95,14:2,carboxylic_acid:amine_primary,D-Alanyl-L-alanyl-L-alanine
C[C@@H](N)C(=O)N[C@@H](C)C(=O)N[C@@H](C)C(O)=O,3.26,14:2,carboxylic_acid:amine_primary,D-Alanyl-L-alanyl-L-alanine
C[C@@H](N)C(=O)N[C@H](C)C(=O)N[C@H](C)C(O)=O,7.95,14:2,carboxylic_acid:amine_primary,D-Alanyl-D-alanyl-D-alanine
C[C@@H](N)C(=O)N[C@H](C)C(=O)N[C@H](C)C(O)=O,3.28,14:2,carboxylic_acid:amine_primary,D-Alanyl-D-alanyl-D-alanine
CC(C)C[C@H](NC(=O)CNC(=O)CN)C(O)=O,7.9,15,carboxylic_acid,Glycylglycyl-L-leucine
CC(C)C[C@H](NC(=O)CN)C(=O)NCC(O)=O,7.95,15,carboxylic_acid,Glycyl-L-leucylglycine
CC(C)C[C@H](N)C(=O)NCC(=O)NCC(O)=O,7.75,15:5,carboxylic_acid:amine_primary,L-Leucylglycylglycine
CC(C)C[C@H](N)C(=O)NCC(=O)NCC(O)=O,3.23,15:5,carboxylic_acid:amine_primary,L-Leucylglycylglycine
CC(C)C[C@H](NC(=O)[C@H](CC(C)C)NC(=O)CN)C(O)=O,8.1,19:17,carboxylic_acid:amine_primary,Glycyl-L-leucyl-L-leucine
CC(C)C[C@H](NC(=O)[C@H](CC(C)C)NC(=O)CN)C(O)=O,3.52,19:17,carboxylic_acid:amine_primary,Glycyl-L-leucyl-L-leucine
CC(C)C[C@@H](NC(=O)[C@H](CC(C)C)NC(=O)CN)C(O)=O,8.03,19:17,carboxylic_acid:amine_primary,Glycyl-L-leucyl-D-leucine
CC(C)C[C@@H](NC(=O)[C@H](CC(C)C)NC(=O)CN)C(O)=O,3.42,19:17,carboxylic_acid:amine_primary,Glycyl-L-leucyl-D-leucine
CC(C)C[C@H](NC(=O)[C@@H](CC(C)C)NC(=O)CN)C(O)=O,8.15,19:17,carboxylic_acid:amine_primary,Glycyl-D-leucyl-L-leucine
CC(C)C[C@H](NC(=O)[C@@H](CC(C)C)NC(=O)CN)C(O)=O,3.46,19:17,carboxylic_acid:amine_primary,Glycyl-D-leucyl-L-leucine
CC(C)C[C@H](N)C(=O)NCC(=O)N[C@@H](CC(C)C)C(O)=O,7.75,19:5,carboxylic_acid:amine_primary,L-Leucylglycyl-L-leucine
CC(C)C[C@H](N)C(=O)NCC(=O)N[C@@H](CC(C)C)C(O)=O,3.33,19:5,carboxylic_acid:amine_primary,L-Leucylglycyl-L-leucine
CC(C)C[C@H](N)C(=O)NCC(=O)N[C@H](CC(C)C)C(O)=O,7.79,19:5,carboxylic_acid:amine_primary,L-Leucylglycyl-D-leucine
CC(C)C[C@H](N)C(=O)NCC(=O)N[C@H](CC(C)C)C(O)=O,3.32,19:5,carboxylic_acid:amine_primary,L-Leucylglycyl-D-leucine
CC(C)C[C@@H](N)C(=O)NCC(=O)N[C@@H](CC(C)C)C(O)=O,7.81,19:5,carboxylic_acid:amine_primary,D-Leucylglycyl-L-leucine
CC(C)C[C@@H](N)C(=O)NCC(=O)N[C@@H](CC(C)C)C(O)=O,3.33,19:5,carboxylic_acid:amine_primary,D-Leucylglycyl-L-leucine
CC(C)C[C@H](N)C(=O)N[C@@H](CC(C)C)C(=O)NCC(O)=O,7.62,19:5,carboxylic_acid:amine_primary,L-Leucyl-L-leucylglycine
CC(C)C[C@H](N)C(=O)N[C@@H](CC(C)C)C(=O)NCC(O)=O,3.56,19:5,carboxylic_acid:amine_primary,L-Leucyl-L-leucylglycine
CC(C)C[C@H](N)C(=O)N[C@H](CC(C)C)C(=O)NCC(O)=O,7.89,19:5,carboxylic_acid:amine_primary,L-Leucyl-D-leucylglycine
CC(C)C[C@H](N)C(=O)N[C@H](CC(C)C)C(=O)NCC(O)=O,3.33,19:5,carboxylic_acid:amine_primary,L-Leucyl-D-leucylglycine
CC(C)C[C@@H](N)C(=O)N[C@@H](CC(C)C)C(=O)NCC(O)=O,7.87,19:5,carboxylic_acid:amine_primary,D-Leucyl-L-leucylglycine
CC(C)C[C@@H](N)C(=O)N[C@@H](CC(C)C)C(=O)NCC(O)=O,3.33,19:5,carboxylic_acid:amine_primary,D-Leucyl-L-leucylglycine
CC(C)C[C@H](N)C(=O)N[C@@H](CC(C)C)C(=O)N[C@@H](CC(C)C)C(O)=O,7.65,23:5,carboxylic_acid:amine_primary,L-Leucyl-L-leucyl-L-leucine
CC(C)C[C@H](N)C(=O)N[C@@H](CC(C)C)C(=O)N[C@@H](CC(C)C)C(O)=O,3.59,23:5,carboxylic_acid:amine_primary,L-Leucyl-L-leucyl-L-leucine
CC(C)(NC(=O)CN)C(=O)NCC(O)=O,8.2,13:7,carboxylic_acid:amine_primary,Glycyl-2-methylalanylglycine
CC(C)(NC(=O)CN)C(=O)NCC(O)=O,3.33,13:7,carboxylic_acid:amine_primary,Glycyl-2-methylalanylglycine
CC(N)C(=O)NC(C)(C)C(=O)NC(C)(C)C(O)=O,8.29,16:2,carboxylic_acid:amine_primary,DL-Alanyl-2-methylalanyl-2-methylalanine
CC(N)C(=O)NC(C)(C)C(=O)NC(C)(C)C(O)=O,3.95,16:2,carboxylic_acid:amine_primary,DL-Alanyl-2-methylalanyl-2-methylalanine
CC(C)(N)C(=O)NC(C)(C)C(=O)NC(C)(C)C(O)=O,8.11,17:3,carboxylic_acid:amine_primary,2-Methylalanyl-2-methylalanyl-2-methylalanine
CC(C)(N)C(=O)NC(C)(C)C(=O)NC(C)(C)C(O)=O,3.82,17:3,carboxylic_acid:amine_primary,2-Methylalanyl-2-methylalanyl-2-methylalanine
N[C@@H](Cc1ccccc1)C(=O)N[C@@H](Cc2ccccc2)C(=O)N[C@@H](Cc3ccccc3)C(O)=O,7.13,32:0,carboxylic_acid:amine_primary,L-Phenylalanyl-L-phenylalanyl-L-phenylalanine
N[C@@H](Cc1ccccc1)C(=O)N[C@@H](Cc2ccccc2)C(=O)N[C@@H](Cc3ccccc3)C(O)=O,3.52,32:0,carboxylic_acid:amine_primary,L-Phenylalanyl-L-phenylalanyl-L-phenylalanine
N[C@@H](CC(O)=O)C(=O)N[C@@H](CC(O)=O)C(=O)N[C@@H](CC(O)=O)C(O)=O,8.13,4:12:20:23:0,carboxylic_acid:carboxylic_acid:carboxylic_acid:carboxylic_acid:amine_primary,L-Aspartyl-L-aspartyl-L-aspartic acid
N[C@@H](CC(O)=O)C(=O)N[C@@H](CC(O)=O)C(=O)N[C@@H](CC(O)=O)C(O)=O,4.78,4:12:20:23:0,carboxylic_acid:carboxylic_acid:carboxylic_acid:carboxylic_acid:amine_primary,L-Aspartyl-L-aspartyl-L-aspartic acid
N[C@@H](CC(O)=O)C(=O)N[C@@H](CC(O)=O)C(=O)N[C@@H](CC(O)=O)C(O)=O,3.87,4:12:20:23:0,carboxylic_acid:carboxylic_acid:carboxylic_acid:carboxylic_acid:amine_primary,L-Aspartyl-L-aspartyl-L-aspartic acid
N[C@@H](CC(O)=O)C(=O)N[C@@H](CC(O)=O)C(=O)N[C@@H](CC(O)=O)C(O)=O,2.04,4:12:20:23:0,carboxylic_acid:carboxylic_acid:carboxylic_acid:carboxylic_acid:amine_primary,L-Aspartyl-L-aspartyl-L-aspartic acid
N[C@@H](CC(O)=O)C(=O)N[C@@H](CC(O)=O)C(=O)N[C@@H](CC(O)=O)C(O)=O,1.8,4:12:20:23:0,carboxylic_acid:carboxylic_acid:carboxylic_acid:carboxylic_acid:amine_primary,L-Aspartyl-L-aspartyl-L-aspartic acid
NCC(=O)NCC(=O)N[C@@H](Cc1ccc(O)cc1)C(O)=O,9.75,19:0:4,carboxylic_acid:amine_primary:amine_secondary,Glycylglycyl-L-tyrosine
NCC(=O)NCC(=O)N[C@@H](Cc1ccc(O)cc1)C(O)=O,7.91,19:0:4,carboxylic_acid:amine_primary:amine_secondary,Glycylglycyl-L-tyrosine
NCC(=O)NCC(=O)N[C@@H](Cc1ccc(O)cc1)C(O)=O,3.19,19:0:4,carboxylic_acid:amine_primary:amine_secondary,Glycylglycyl-L-tyrosine
NCC(=O)N[C@@H](Cc1ccc(O)cc1)C(=O)NCC(O)=O,9.78,19:0:4,carboxylic_acid:amine_primary:amine_secondary,Glycyl-L-tyrosylglycine
NCC(=O)N[C@@H](Cc1ccc(O)cc1)C(=O)NCC(O)=O,7.92,19:0:4,carboxylic_acid:amine_primary:amine_secondary,Glycyl-L-tyrosylglycine
NCC(=O)N[C@@H](Cc1ccc(O)cc1)C(=O)NCC(O)=O,3.36,19:0:4,carboxylic_acid:amine_primary:amine_secondary,Glycyl-L-tyrosylglycine
N[C@@H](Cc1ccc(O)cc1)C(=O)NCC(=O)NCC(O)=O,10.09,19:0:12,carboxylic_acid:amine_primary:amine_secondary,L-Tyrosylglycylglycine
N[C@@H](Cc1ccc(O)cc1)C(=O)NCC(=O)NCC(O)=O,7.37,19:0:12,carboxylic_acid:amine_primary:amine_secondary,L-Tyrosylglycylglycine
N[C@@H](Cc1ccc(O)cc1)C(=O)NCC(=O)NCC(O)=O,3.22,19:0:12,carboxylic_acid:amine_primary:amine_secondary,L-Tyrosylglycylglycine
CC(C)C[C@H](NC(=O)CN)C(=O)N[C@@H](Cc1ccc(O)cc1)C(O)=O,10.3,23:9:5,carboxylic_acid:amine_primary:amine_secondary,Glycyl-L-leucyl-L-tyrosine
CC(C)C[C@H](NC(=O)CN)C(=O)N[C@@H](Cc1ccc(O)cc1)C(O)=O,8.07,23:9:5,carboxylic_acid:amine_primary:amine_secondary,Glycyl-L-leucyl-L-tyrosine
CC(C)C[C@H](NC(=O)CN)C(=O)N[C@@H](Cc1ccc(O)cc1)C(O)=O,3.14,23:9:5,carboxylic_acid:amine_primary:amine_secondary,Glycyl-L-leucyl-L-tyrosine
N[C@@H](Cc1ccc(O)cc1)C(=O)N[C@@H](Cc2ccc(O)cc2)C(=O)N[C@@H](Cc3ccc(O)cc3)C(O)=O,10.92,35:0:12:24:7,carboxylic_acid:amine_primary:amine_secondary:amine_secondary:phenol,L-Tyrosyl-L-tyrosyl-L-tyrosine
N[C@@H](Cc1ccc(O)cc1)C(=O)N[C@@H](Cc2ccc(O)cc2)C(=O)N[C@@H](Cc3ccc(O)cc3)C(O)=O,9.95,35:0:12:24:7,carboxylic_acid:amine_primary:amine_secondary:amine_secondary:phenol,L-Tyrosyl-L-tyrosyl-L-tyrosine
N[C@@H](Cc1ccc(O)cc1)C(=O)N[C@@H](Cc2ccc(O)cc2)C(=O)N[C@@H](Cc3ccc(O)cc3)C(O)=O,9.56,35:0:12:24:7,carboxylic_acid:amine_primary:amine_secondary:amine_secondary:phenol,L-Tyrosyl-L-tyrosyl-L-tyrosine
N[C@@H](Cc1ccc(O)cc1)C(=O)N[C@@H](Cc2ccc(O)cc2)C(=O)N[C@@H](Cc3ccc(O)cc3)C(O)=O,7.22,35:0:12:24:7,carboxylic_acid:amine_primary:amine_secondary:amine_secondary:phenol,L-Tyrosyl-L-tyrosyl-L-tyrosine
N[C@@H](Cc1ccc(O)cc1)C(=O)N[C@@H](Cc2ccc(O)cc2)C(=O)N[C@@H](Cc3ccc(O)cc3)C(O)=O,3.37,35:0:12:24:7,carboxylic_acid:amine_primary:amine_secondary:amine_secondary:phenol,L-Tyrosyl-L-tyrosyl-L-tyrosine
NCC(=O)NCC(=O)N[C@@H](CS)C(O)=O,9.48,13:0:4,carboxylic_acid:amine_primary:amine_secondary,Glycylglycyl-L-cysteine
NCC(=O)NCC(=O)N[C@@H](CS)C(O)=O,7.82,13:0:4,carboxylic_acid:amine_primary:amine_secondary,Glycylglycyl-L-cysteine
NCC(=O)NCC(=O)N[C@@H](CS)C(O)=O,3.07,13:0:4,carboxylic_acid:amine_primary:amine_secondary,Glycylglycyl-L-cysteine
C[C@H](N)C(=O)N[C@@H](C)C(=O)N[C@@H](CS)C(O)=O,9.73,15:2:5,carboxylic_acid:amine_primary:amine_secondary,L-Alanyl-L-alanyl-L-cysteine
C[C@H](N)C(=O)N[C@@H](C)C(=O)N[C@@H](CS)C(O)=O,7.96,15:2:5,carboxylic_acid:amine_primary:amine_secondary,L-Alanyl-L-alanyl-L-cysteine
C[C@H](N)C(=O)N[C@@H](C)C(=O)N[C@@H](CS)C(O)=O,3.22,15:2:5,carboxylic_acid:amine_primary:amine_secondary,L-Alanyl-L-alanyl-L-cysteine
CN(CC(O)=O)C(=O)CNC(=O)CN,7.98,4:13,carboxylic_acid:amine_primary,Glycylglycylsarcosine
CN(CC(O)=O)C(=O)CNC(=O)CN,2.9,4:13,carboxylic_acid:amine_primary,Glycylglycylsarcosine
CN(CC(=O)NCC(O)=O)C(=O)CN,8.23,1,tertiary_amine,Glycylsarcosylglycine
OC(=O)CNC(=O)[C@@H]1CCCN1C(=O)[C@@H]2CCCN2,9.15,0:4,carboxylic_acid:amine_secondary,L-Prolyl-L-prolylglycine
OC(=O)CNC(=O)[C@@H]1CCCN1C(=O)[C@@H]2CCCN2,3.17,0:4,carboxylic_acid:amine_secondary,L-Prolyl-L-prolylglycine
N[C@@H](Cc1ccc(O)cc1)C(=O)N2CCC[C@H]2C(=O)N[C@@H](Cc3ccccc3)C(O)=O,9.79,29:0:19,carboxylic_acid:amine_primary:amine_secondary,L-Tyrosyl-L-prolyl-L-phenylalanine
N[C@@H](Cc1ccc(O)cc1)C(=O)N2CCC[C@H]2C(=O)N[C@@H](Cc3ccccc3)C(O)=O,7.47,29:0:19,carboxylic_acid:amine_primary:amine_secondary,L-Tyrosyl-L-prolyl-L-phenylalanine
N[C@@H](Cc1ccc(O)cc1)C(=O)N2CCC[C@H]2C(=O)N[C@@H](Cc3ccccc3)C(O)=O,3.14,29:0:19,carboxylic_acid:amine_primary:amine_secondary,L-Tyrosyl-L-prolyl-L-phenylalanine
NCC(=O)NC(CO)C(=O)NCC(O)=O,7.99,13:0,carboxylic_acid:amine_primary,Glycyl-DL-serylglycine
NCC(=O)NC(CO)C(=O)NCC(O)=O,3.23,13:0,carboxylic_acid:amine_primary,Glycyl-DL-serylglycine
NCC(=O)NCC(=O)N[C@@H](Cc1c[nH]cn1)C(O)=O,8.02,17:0:4,carboxylic_acid:amine_primary:amine_secondary,Glycylglycyl-L-histidine
NCC(=O)NCC(=O)N[C@@H](Cc1c[nH]cn1)C(O)=O,8.22,17:0:4,carboxylic_acid:amine_primary:amine_secondary,Glycylglycyl-L-histidine
NCC(=O)NCC(=O)N[C@@H](Cc1c[nH]cn1)C(O)=O,7.39,17:0:4,carboxylic_acid:amine_primary:amine_secondary,Glycylglycyl-L-histidine
NCC(=O)NCC(=O)N[C@@H](Cc1c[nH]cn1)C(O)=O,6.72,17:0:4,carboxylic_acid:amine_primary:amine_secondary,Glycylglycyl-L-histidine
NCC(=O)NCC(=O)N[C@@H](Cc1c[nH]cn1)C(O)=O,6.87,17:0:4,carboxylic_acid:amine_primary:amine_secondary,Glycylglycyl-L-histidine
NCC(=O)NCC(=O)N[C@@H](Cc1c[nH]cn1)C(O)=O,6.4,17:0:4,carboxylic_acid:amine_primary:amine_secondary,Glycylglycyl-L-histidine
NCC(=O)NCC(=O)N[C@@H](Cc1c[nH]cn1)C(O)=O,2.82,17:0:4,carboxylic_acid:amine_primary:amine_secondary,Glycylglycyl-L-histidine
NCC(=O)NCC(=O)N[C@@H](Cc1c[nH]cn1)C(O)=O,2.84,17:0:4,carboxylic_acid:amine_primary:amine_secondary,Glycylglycyl-L-histidine
NCC(=O)NCC(=O)N[C@@H](Cc1c[nH]cn1)C(O)=O,2.31,17:0:4,carboxylic_acid:amine_primary:amine_secondary,Glycylglycyl-L-histidine
NCC(=O)N[C@@H](Cc1c[nH]cn1)C(=O)NCC(O)=O,8.0,17:0:4,carboxylic_acid:amine_primary:amine_secondary,Glycyl-L-histidylglycine
NCC(=O)N[C@@H](Cc1c[nH]cn1)C(=O)NCC(O)=O,7.56,17:0:4,carboxylic_acid:amine_primary:amine_secondary,Glycyl-L-histidylglycine
NCC(=O)N[C@@H](Cc1c[nH]cn1)C(=O)NCC(O)=O,7.96,17:0:4,carboxylic_acid:amine_primary:amine_secondary,Glycyl-L-histidylglycine