SMILES,pKa,Dissociable_Atoms,Functional_Group,Name,Dissociable_Atoms_Ordered,Functional_Group_Ordered,Dissociation_Order
NCC(=O)NCCCNC(=O)CN,8.4,0:12,amine_primary:amine_primary,"N,N'-Diglycyltrimethylenediamine",0:12,amine_primary:amine_primary,0(amine_primary) > 12(amine_primary)
NCC(=O)NCCCNC(=O)CN,7.72,0:12,amine_primary:amine_primary,"N,N'-Diglycyltrimethylenediamine",0:12,amine_primary:amine_primary,0(amine_primary) > 12(amine_primary)
NCC(=O)NCCCCNC(=O)CN,8.41,0:13,amine_primary:amine_primary,"N,N'-Diglycyltetramethylenediamine",0:13,amine_primary:amine_primary,0(amine_primary) > 13(amine_primary)
NCC(=O)NCCCCNC(=O)CN,7.78,0:13,amine_primary:amine_primary,"N,N'-Diglycyltetramethylenediamine",0:13,amine_primary:amine_primary,0(amine_primary) > 13(amine_primary)
NCC(=O)NCCCCCNC(=O)CN,8.36,0:14,amine_primary:amine_primary,"N,N'-Diglycylpentamethylenediamine",0:14,amine_primary:amine_primary,0(amine_primary) > 14(amine_primary)
NCC(=O)NCCCCCNC(=O)CN,7.73,0:14,amine_primary:amine_primary,"N,N'-Diglycylpentamethylenediamine",0:14,amine_primary:amine_primary,0(amine_primary) > 14(amine_primary)
NCC(=O)NCCCCCCNC(=O)CN,8.41,0:15,amine_primary:amine_primary,"N,N'-Diglycylhexamethylenediamine",0:15,amine_primary:amine_primary,0(amine_primary) > 15(amine_primary)
NCC(=O)NCCCCCCNC(=O)CN,7.78,0:15,amine_primary:amine_primary,"N,N'-Diglycylhexamethylenediamine",0:15,amine_primary:amine_primary,0(amine_primary) > 15(amine_primary)
NCC(=O)NCCCCCCCCNC(=O)CN,8.41,0:17,amine_primary:amine_primary,"N,N'-Diglycyloctamethylenediamine",0:17,amine_primary:amine_primary,0(amine_primary) > 17(amine_primary)
NCC(=O)NCCCCCCCCNC(=O)CN,7.75,0:17,amine_primary:amine_primary,"N,N'-Diglycyloctamethylenediamine",0:17,amine_primary:amine_primary,0(amine_primary) > 17(amine_primary)
NCCNC(=O)C(=O)NCCN,9.23,0:11,amine_primary:amine_primary,"N,N'-Bis(2-aminoethyl)oxamide (BAO)(5,6-Dioxo-1,4,7,10-tetraazadecane)",0:11,amine_primary:amine_primary,0(amine_primary) > 11(amine_primary)
NCCNC(=O)C(=O)NCCN,9.31,0:11,amine_primary:amine_primary,"N,N'-Bis(2-aminoethyl)oxamide (BAO)(5,6-Dioxo-1,4,7,10-tetraazadecane)",0:11,amine_primary:amine_primary,0(amine_primary) > 11(amine_primary)
NCCNC(=O)C(=O)NCCN,9.54,0:11,amine_primary:amine_primary,"N,N'-Bis(2-aminoethyl)oxamide (BAO)(5,6-Dioxo-1,4,7,10-tetraazadecane)",0:11,amine_primary:amine_primary,0(amine_primary) > 11(amine_primary)
NCCNC(=O)C(=O)NCCN,8.45,0:11,amine_primary:amine_primary,"N,N'-Bis(2-aminoethyl)oxamide (BAO)(5,6-Dioxo-1,4,7,10-tetraazadecane)",0:11,amine_primary:amine_primary,0(amine_primary) > 11(amine_primary)
NCCNC(=O)C(=O)NCCN,8.43,0:11,amine_primary:amine_primary,"N,N'-Bis(2-aminoethyl)oxamide (BAO)(5,6-Dioxo-1,4,7,10-tetraazadecane)",0:11,amine_primary:amine_primary,0(amine_primary) > 11(amine_primary)
NCCNC(=O)C(=O)NCCN,8.3,0:11,amine_primary:amine_primary,"N,N'-Bis(2-aminoethyl)oxamide (BAO)(5,6-Dioxo-1,4,7,10-tetraazadecane)",0:11,amine_primary:amine_primary,0(amine_primary) > 11(amine_primary)
NCCCNC(=O)C(=O)NCCCN,10.13,0:13,amine_primary:amine_primary,"N,N'-Bis(3-aminopropyl)oxamide (6,7-Dioxo-1,5,8,12-tetraazadodecane)",0:13,amine_primary:amine_primary,0(amine_primary) > 13(amine_primary)
NCCCNC(=O)C(=O)NCCCN,9.41,0:13,amine_primary:amine_primary,"N,N'-Bis(3-aminopropyl)oxamide (6,7-Dioxo-1,5,8,12-tetraazadodecane)",0:13,amine_primary:amine_primary,0(amine_primary) > 13(amine_primary)
NCCNC(=O)CC(=O)NCCN,8.96,0:12,amine_primary:amine_primary,"N,N'-Bis(2-aminoethyl)malonamide (BAM)(5,7-Dioxo-1,4,8,11-tetraazaundecane)",0:12,amine_primary:amine_primary,0(amine_primary) > 12(amine_primary)
NCCNC(=O)CC(=O)NCCN,9.4,0:12,amine_primary:amine_primary,"N,N'-Bis(2-aminoethyl)malonamide (BAM)(5,7-Dioxo-1,4,8,11-tetraazaundecane)",0:12,amine_primary:amine_primary,0(amine_primary) > 12(amine_primary)
NCCNC(=O)CC(=O)NCCN,8.7,0:12,amine_primary:amine_primary,"N,N'-Bis(2-aminoethyl)malonamide (BAM)(5,7-Dioxo-1,4,8,11-tetraazaundecane)",0:12,amine_primary:amine_primary,0(amine_primary) > 12(amine_primary)
NCCNC(=O)CC(=O)NCCN,8.68,0:12,amine_primary:amine_primary,"N,N'-Bis(2-aminoethyl)malonamide (BAM)(5,7-Dioxo-1,4,8,11-tetraazaundecane)",0:12,amine_primary:amine_primary,0(amine_primary) > 12(amine_primary)
NON=C(N)C=NO,11.37,0:4,amine_primary:amine_primary,Oxamide dioxime (Diaminoglyoxime),0:4,amine_primary:amine_primary,0(amine_primary) > 4(amine_primary)
NON=C(N)C=NO,2.95,0:4,amine_primary:amine_primary,Oxamide dioxime (Diaminoglyoxime),0:4,amine_primary:amine_primary,0(amine_primary) > 4(amine_primary)
NCCCC[C@H](N)C(=O)NO,10.66,0:6:9,amine_primary:amine_primary:amine_secondary,"L-2,6-Diaminohexanohydroxamic acid (Lysinehydroxamic acid)",0:6:9,amine_primary:amine_primary:amine_secondary,0(amine_primary) > 6(amine_primary) > 9(amine_secondary)
NCCCC[C@H](N)C(=O)NO,8.89,0:6:9,amine_primary:amine_primary:amine_secondary,"L-2,6-Diaminohexanohydroxamic acid (Lysinehydroxamic acid)",0:6:9,amine_primary:amine_primary:amine_secondary,0(amine_primary) > 6(amine_primary) > 9(amine_secondary)
NCCCC[C@H](N)C(=O)NO,7.01,0:6:9,amine_primary:amine_primary:amine_secondary,"L-2,6-Diaminohexanohydroxamic acid (Lysinehydroxamic acid)",0:6:9,amine_primary:amine_primary:amine_secondary,0(amine_primary) > 6(amine_primary) > 9(amine_secondary)
NCCCSCCN,10.14,0:7,amine_primary:amine_primary,"4-Thia-1,8-diazaoctane",0:7,amine_primary:amine_primary,0(amine_primary) > 7(amine_primary)
NCCCSCCN,9.16,0:7,amine_primary:amine_primary,"4-Thia-1,8-diazaoctane",0:7,amine_primary:amine_primary,0(amine_primary) > 7(amine_primary)
NCCCCSCCN,10.44,0:8,amine_primary:amine_primary,"4-Thia-1,9-diazanonane",0:8,amine_primary:amine_primary,0(amine_primary) > 8(amine_primary)
NCCCCSCCN,9.25,0:8,amine_primary:amine_primary,"4-Thia-1,9-diazanonane",0:8,amine_primary:amine_primary,0(amine_primary) > 8(amine_primary)
NCCCSCCCN,10.37,0:8,amine_primary:amine_primary,"5-Thia-1,9-diazanonane",0:8,amine_primary:amine_primary,0(amine_primary) > 8(amine_primary)
NCCCSCCCN,9.63,0:8,amine_primary:amine_primary,"5-Thia-1,9-diazanonane",0:8,amine_primary:amine_primary,0(amine_primary) > 8(amine_primary)
NCCCCSCCCN,10.51,0:9,amine_primary:amine_primary,"5-Thia-1,10-diazadecane",0:9,amine_primary:amine_primary,0(amine_primary) > 9(amine_primary)
NCCCCSCCCN,9.81,0:9,amine_primary:amine_primary,"5-Thia-1,10-diazadecane",0:9,amine_primary:amine_primary,0(amine_primary) > 9(amine_primary)
NCCCCSCCCCN,10.73,0:10,amine_primary:amine_primary,"6-Thia-1,11-diazaundecane",0:10,amine_primary:amine_primary,0(amine_primary) > 10(amine_primary)
NCCCCSCCCCN,10.05,0:10,amine_primary:amine_primary,"6-Thia-1,11-diazaundecane",0:10,amine_primary:amine_primary,0(amine_primary) > 10(amine_primary)
NCCOCCSCCN,9.61,0:9,amine_primary:amine_primary,"4-Oxa-7-thia-1,10-diazadecane",0:9,amine_primary:amine_primary,0(amine_primary) > 9(amine_primary)
NCCOCCSCCN,8.68,0:9,amine_primary:amine_primary,"4-Oxa-7-thia-1,10-diazadecane",0:9,amine_primary:amine_primary,0(amine_primary) > 9(amine_primary)
NCC(N)CN,9.55,0:3:5,amine_primary:amine_primary:amine_primary,"1,2,3-Triaminopropane",0:3:5,amine_primary:amine_primary:amine_primary,0(amine_primary) > 3(amine_primary) > 5(amine_primary)
NCC(N)CN,9.63,0:3:5,amine_primary:amine_primary:amine_primary,"1,2,3-Triaminopropane",0:3:5,amine_primary:amine_primary:amine_primary,0(amine_primary) > 3(amine_primary) > 5(amine_primary)
NCC(N)CN,7.9,0:3:5,amine_primary:amine_primary:amine_primary,"1,2,3-Triaminopropane",0:3:5,amine_primary:amine_primary:amine_primary,0(amine_primary) > 3(amine_primary) > 5(amine_primary)
NCC(N)CN,8.08,0:3:5,amine_primary:amine_primary:amine_primary,"1,2,3-Triaminopropane",0:3:5,amine_primary:amine_primary:amine_primary,0(amine_primary) > 3(amine_primary) > 5(amine_primary)
NCC(N)CN,3.66,0:3:5,amine_primary:amine_primary:amine_primary,"1,2,3-Triaminopropane",0:3:5,amine_primary:amine_primary:amine_primary,0(amine_primary) > 3(amine_primary) > 5(amine_primary)
NCC(N)CN,3.99,0:3:5,amine_primary:amine_primary:amine_primary,"1,2,3-Triaminopropane",0:3:5,amine_primary:amine_primary:amine_primary,0(amine_primary) > 3(amine_primary) > 5(amine_primary)
CC(C)(N)CNC1CCCCC1,10.18,3:5,amine_primary:amine_secondary,"2-(Cyclohexylaminomethyl)-2-propylamine (N-Cyclohexyl-2,2-dimethylethylenediamine)",3:5,amine_primary:amine_secondary,3(amine_primary) > 5(amine_secondary)
CC(C)(N)CNC1CCCCC1,6.77,3:5,amine_primary:amine_secondary,"2-(Cyclohexylaminomethyl)-2-propylamine (N-Cyclohexyl-2,2-dimethylethylenediamine)",3:5,amine_primary:amine_secondary,3(amine_primary) > 5(amine_secondary)
NCCNCc1ccccc1,9.41,0:3,amine_primary:amine_secondary,N-Benzylethylenediamine,0:3,amine_primary:amine_secondary,0(amine_primary) > 3(amine_secondary)
NCCNCc1ccccc1,6.48,0:3,amine_primary:amine_secondary,N-Benzylethylenediamine,0:3,amine_primary:amine_secondary,0(amine_primary) > 3(amine_secondary)
Cc1ccc(CNCCN)cc1,9.41,6:9,amine_secondary:amine_primary,N-(4-Methylbenzyl)ethylenediamine,9:6,amine_primary:amine_secondary,9(amine_primary) > 6(amine_secondary)
Cc1ccc(CNCCN)cc1,6.51,6:9,amine_secondary:amine_primary,N-(4-Methylbenzyl)ethylenediamine,9:6,amine_primary:amine_secondary,9(amine_primary) > 6(amine_secondary)
NCCNCCc1ccccc1,9.44,0:3,amine_primary:amine_secondary,N-(2-Phenylethyl)ethylenediamine,0:3,amine_primary:amine_secondary,0(amine_primary) > 3(amine_secondary)
NCCNCCc1ccccc1,6.59,0:3,amine_primary:amine_secondary,N-(2-Phenylethyl)ethylenediamine,0:3,amine_primary:amine_secondary,0(amine_primary) > 3(amine_secondary)
CNCCNC,10.05,1:4,amine_secondary:amine_secondary,"N,N'-Dimethylethylenediamine",1:4,amine_secondary:amine_secondary,1(amine_secondary) > 4(amine_secondary)
CNCCNC,10.16,1:4,amine_secondary:amine_secondary,"N,N'-Dimethylethylenediamine",1:4,amine_secondary:amine_secondary,1(amine_secondary) > 4(amine_secondary)
CNCCNC,10.34,1:4,amine_secondary:amine_secondary,"N,N'-Dimethylethylenediamine",1:4,amine_secondary:amine_secondary,1(amine_secondary) > 4(amine_secondary)
CNCCNC,10.77,1:4,amine_secondary:amine_secondary,"N,N'-Dimethylethylenediamine",1:4,amine_secondary:amine_secondary,1(amine_secondary) > 4(amine_secondary)
CNCCNC,10.03,1:4,amine_secondary:amine_secondary,"N,N'-Dimethylethylenediamine",1:4,amine_secondary:amine_secondary,1(amine_secondary) > 4(amine_secondary)
CNCCNC,7.04,1:4,amine_secondary:amine_secondary,"N,N'-Dimethylethylenediamine",1:4,amine_secondary:amine_secondary,1(amine_secondary) > 4(amine_secondary)
CNCCNC,7.3,1:4,amine_secondary:amine_secondary,"N,N'-Dimethylethylenediamine",1:4,amine_secondary:amine_secondary,1(amine_secondary) > 4(amine_secondary)
CNCCNC,7.52,1:4,amine_secondary:amine_secondary,"N,N'-Dimethylethylenediamine",1:4,amine_secondary:amine_secondary,1(amine_secondary) > 4(amine_secondary)
CNCCNC,7.91,1:4,amine_secondary:amine_secondary,"N,N'-Dimethylethylenediamine",1:4,amine_secondary:amine_secondary,1(amine_secondary) > 4(amine_secondary)
CNCCNC,6.8,1:4,amine_secondary:amine_secondary,"N,N'-Dimethylethylenediamine",1:4,amine_secondary:amine_secondary,1(amine_secondary) > 4(amine_secondary)
CCNCCNCC,10.16,2:5,amine_secondary:amine_secondary,"N,N'-Diethylethylenediamine",2:5,amine_secondary:amine_secondary,2(amine_secondary) > 5(amine_secondary)
CCNCCNCC,10.32,2:5,amine_secondary:amine_secondary,"N,N'-Diethylethylenediamine",2:5,amine_secondary:amine_secondary,2(amine_secondary) > 5(amine_secondary)
CCNCCNCC,10.5,2:5,amine_secondary:amine_secondary,"N,N'-Diethylethylenediamine",2:5,amine_secondary:amine_secondary,2(amine_secondary) > 5(amine_secondary)
CCNCCNCC,10.88,2:5,amine_secondary:amine_secondary,"N,N'-Diethylethylenediamine",2:5,amine_secondary:amine_secondary,2(amine_secondary) > 5(amine_secondary)
CCNCCNCC,10.1,2:5,amine_secondary:amine_secondary,"N,N'-Diethylethylenediamine",2:5,amine_secondary:amine_secondary,2(amine_secondary) > 5(amine_secondary)
CCNCCNCC,7.28,2:5,amine_secondary:amine_secondary,"N,N'-Diethylethylenediamine",2:5,amine_secondary:amine_secondary,2(amine_secondary) > 5(amine_secondary)
CCNCCNCC,7.5,2:5,amine_secondary:amine_secondary,"N,N'-Diethylethylenediamine",2:5,amine_secondary:amine_secondary,2(amine_secondary) > 5(amine_secondary)
CCNCCNCC,7.73,2:5,amine_secondary:amine_secondary,"N,N'-Diethylethylenediamine",2:5,amine_secondary:amine_secondary,2(amine_secondary) > 5(amine_secondary)
CCNCCNCC,8.06,2:5,amine_secondary:amine_secondary,"N,N'-Diethylethylenediamine",2:5,amine_secondary:amine_secondary,2(amine_secondary) > 5(amine_secondary)
CCNCCNCC,6.96,2:5,amine_secondary:amine_secondary,"N,N'-Diethylethylenediamine",2:5,amine_secondary:amine_secondary,2(amine_secondary) > 5(amine_secondary)
CC(C)NCCNC(C)C,10.25,3:6,amine_secondary:amine_secondary,"N,N'-Di-2-propylethylenediamine",3:6,amine_secondary:amine_secondary,3(amine_secondary) > 6(amine_secondary)
CC(C)NCCNC(C)C,7.44,3:6,amine_secondary:amine_secondary,"N,N'-Di-2-propylethylenediamine",3:6,amine_secondary:amine_secondary,3(amine_secondary) > 6(amine_secondary)
CCCNCCNCCC,10.12,3:6,amine_secondary:amine_secondary,"N,N'-Dipropylethylenediamine",3:6,amine_secondary:amine_secondary,3(amine_secondary) > 6(amine_secondary)
CCCNCCNCCC,7.38,3:6,amine_secondary:amine_secondary,"N,N'-Dipropylethylenediamine",3:6,amine_secondary:amine_secondary,3(amine_secondary) > 6(amine_secondary)
CCCCNCCNCCCC,10.04,4:7,amine_secondary:amine_secondary,"N,N'-Dibutylethylenediamine",4:7,amine_secondary:amine_secondary,4(amine_secondary) > 7(amine_secondary)
CCCCNCCNCCCC,7.31,4:7,amine_secondary:amine_secondary,"N,N'-Dibutylethylenediamine",4:7,amine_secondary:amine_secondary,4(amine_secondary) > 7(amine_secondary)
CNCCCNC,10.64,1:5,amine_secondary:amine_secondary,"N,N'-Dimethyltrimethylenediamine",1:5,amine_secondary:amine_secondary,1(amine_secondary) > 5(amine_secondary)
CNCCCNC,10.81,1:5,amine_secondary:amine_secondary,"N,N'-Dimethyltrimethylenediamine",1:5,amine_secondary:amine_secondary,1(amine_secondary) > 5(amine_secondary)
CNCCCNC,10.96,1:5,amine_secondary:amine_secondary,"N,N'-Dimethyltrimethylenediamine",1:5,amine_secondary:amine_secondary,1(amine_secondary) > 5(amine_secondary)
CNCCCNC,11.35,1:5,amine_secondary:amine_secondary,"N,N'-Dimethyltrimethylenediamine",1:5,amine_secondary:amine_secondary,1(amine_secondary) > 5(amine_secondary)
CNCCCNC,10.6,1:5,amine_secondary:amine_secondary,"N,N'-Dimethyltrimethylenediamine",1:5,amine_secondary:amine_secondary,1(amine_secondary) > 5(amine_secondary)
CNCCCNC,8.81,1:5,amine_secondary:amine_secondary,"N,N'-Dimethyltrimethylenediamine",1:5,amine_secondary:amine_secondary,1(amine_secondary) > 5(amine_secondary)
CNCCCNC,9.11,1:5,amine_secondary:amine_secondary,"N,N'-Dimethyltrimethylenediamine",1:5,amine_secondary:amine_secondary,1(amine_secondary) > 5(amine_secondary)
CNCCCNC,9.26,1:5,amine_secondary:amine_secondary,"N,N'-Dimethyltrimethylenediamine",1:5,amine_secondary:amine_secondary,1(amine_secondary) > 5(amine_secondary)
CNCCCNC,9.71,1:5,amine_secondary:amine_secondary,"N,N'-Dimethyltrimethylenediamine",1:5,amine_secondary:amine_secondary,1(amine_secondary) > 5(amine_secondary)
CNCCCNC,8.52,1:5,amine_secondary:amine_secondary,"N,N'-Dimethyltrimethylenediamine",1:5,amine_secondary:amine_secondary,1(amine_secondary) > 5(amine_secondary)
CNCC(=C)CNC,10.42,1:6,amine_secondary:amine_secondary,"N,N'-Dimethyl-2-methylenetrimethylenediamine",1:6,amine_secondary:amine_secondary,1(amine_secondary) > 6(amine_secondary)
CNCC(=C)CNC,8.39,1:6,amine_secondary:amine_secondary,"N,N'-Dimethyl-2-methylenetrimethylenediamine",1:6,amine_secondary:amine_secondary,1(amine_secondary) > 6(amine_secondary)
CC[C@@H](CO)NCCN[C@@H](CC)CO,9.05,5:8,amine_secondary:amine_secondary,D(+)-Ethylenebis(2-iminobutanol) (Ethambutol),5:8,amine_secondary:amine_secondary,5(amine_secondary) > 8(amine_secondary)
CC[C@@H](CO)NCCN[C@@H](CC)CO,6.05,5:8,amine_secondary:amine_secondary,D(+)-Ethylenebis(2-iminobutanol) (Ethambutol),5:8,amine_secondary:amine_secondary,5(amine_secondary) > 8(amine_secondary)
CC(=O)CC(C)(C)NCCNC(C)(C)CC(C)=O,9.41,7:10,amine_secondary:amine_secondary,"Ethylenebis[imino-4-(4-methylpentan-2-one)] (4,4,9,9-Tetramethyl-5,8-diazadodecan-2,11-dione)",7:10,amine_secondary:amine_secondary,7(amine_secondary) > 10(amine_secondary)
CC(=O)CC(C)(C)NCCNC(C)(C)CC(C)=O,6.19,7:10,amine_secondary:amine_secondary,"Ethylenebis[imino-4-(4-methylpentan-2-one)] (4,4,9,9-Tetramethyl-5,8-diazadodecan-2,11-dione)",7:10,amine_secondary:amine_secondary,7(amine_secondary) > 10(amine_secondary)
CC(C)(S)CNCCNCC(C)(C)S,10.99,3:5:8:13,thiol:amine_secondary:amine_secondary:thiol,"N,N'-Bis(2,2-dimethyl-2-mercaptoethyl)ethylenediamine",3:13:5:8,thiol:thiol:amine_secondary:amine_secondary,3(thiol) > 13(thiol) > 5(amine_secondary) > 8(amine_secondary)
CC(C)(S)CNCCNCC(C)(C)S,9.72,3:5:8:13,thiol:amine_secondary:amine_secondary:thiol,"N,N'-Bis(2,2-dimethyl-2-mercaptoethyl)ethylenediamine",3:13:5:8,thiol:thiol:amine_secondary:amine_secondary,3(thiol) > 13(thiol) > 5(amine_secondary) > 8(amine_secondary)
CC(C)(S)CNCCNCC(C)(C)S,7.79,3:5:8:13,thiol:amine_secondary:amine_secondary:thiol,"N,N'-Bis(2,2-dimethyl-2-mercaptoethyl)ethylenediamine",3:13:5:8,thiol:thiol:amine_secondary:amine_secondary,3(thiol) > 13(thiol) > 5(amine_secondary) > 8(amine_secondary)
CC(C)(S)CNCCNCC(C)(C)S,5.56,3:5:8:13,thiol:amine_secondary:amine_secondary:thiol,"N,N'-Bis(2,2-dimethyl-2-mercaptoethyl)ethylenediamine",3:13:5:8,thiol:thiol:amine_secondary:amine_secondary,3(thiol) > 13(thiol) > 5(amine_secondary) > 8(amine_secondary)
CNCCSCCN,9.86,1:7,amine_secondary:amine_primary,"4-Thia-1,7-diazaoctane",7:1,amine_primary:amine_secondary,7(amine_primary) > 1(amine_secondary)
CNCCSCCN,8.89,1:7,amine_secondary:amine_primary,"4-Thia-1,7-diazaoctane",7:1,amine_primary:amine_secondary,7(amine_primary) > 1(amine_secondary)
CNCCSCCCN,10.26,1:8,amine_secondary:amine_primary,"5-Thia-1,8-diazanonane",8:1,amine_primary:amine_secondary,8(amine_primary) > 1(amine_secondary)
CNCCSCCCN,9.44,1:8,amine_secondary:amine_primary,"5-Thia-1,8-diazanonane",8:1,amine_primary:amine_secondary,8(amine_primary) > 1(amine_secondary)
CNCCSCCCCN,10.51,1:9,amine_secondary:amine_primary,"6-Thia-1,9-diazadecane",9:1,amine_primary:amine_secondary,9(amine_primary) > 1(amine_secondary)
CNCCSCCCCN,9.55,1:9,amine_secondary:amine_primary,"6-Thia-1,9-diazadecane",9:1,amine_primary:amine_secondary,9(amine_primary) > 1(amine_secondary)
CNCCSCCNC,9.91,1:7,amine_secondary:amine_secondary,"5-Thia-2,8-diazanonane",1:7,amine_secondary:amine_secondary,1(amine_secondary) > 7(amine_secondary)
CNCCSCCNC,8.94,1:7,amine_secondary:amine_secondary,"5-Thia-2,8-diazanonane",1:7,amine_secondary:amine_secondary,1(amine_secondary) > 7(amine_secondary)
CSCCCNCCNCCCSC,9.74,5:8,amine_secondary:amine_secondary,"2,13-Dithia-6,9-diazatetradecane",5:8,amine_secondary:amine_secondary,5(amine_secondary) > 8(amine_secondary)
CSCCCNCCNCCCSC,6.89,5:8,amine_secondary:amine_secondary,"2,13-Dithia-6,9-diazatetradecane",5:8,amine_secondary:amine_secondary,5(amine_secondary) > 8(amine_secondary)
CNCCSCCOCCSCCNC,9.84,1:13,amine_secondary:amine_secondary,"8-Oxa-5,11-dithia-2,14-diazapentadecane",1:13,amine_secondary:amine_secondary,1(amine_secondary) > 13(amine_secondary)
CNCCSCCOCCSCCNC,9.06,1:13,amine_secondary:amine_secondary,"8-Oxa-5,11-dithia-2,14-diazapentadecane",1:13,amine_secondary:amine_secondary,1(amine_secondary) > 13(amine_secondary)
CC(CC(C)(C)NCCNC(C)(C)CC(C)=NO)=NO,9.41,6:9,amine_secondary:amine_secondary,"Ethylenebis[imino-4-(4-methylpentan-2-one oxime)] (4,4,9,9-Tetramethyl-5,8-diazadodecane-2,11-dione dioxime)",6:9,amine_secondary:amine_secondary,6(amine_secondary) > 9(amine_secondary)
CC(CC(C)(C)NCCNC(C)(C)CC(C)=NO)=NO,9.35,6:9,amine_secondary:amine_secondary,"Ethylenebis[imino-4-(4-methylpentan-2-one oxime)] (4,4,9,9-Tetramethyl-5,8-diazadodecane-2,11-dione dioxime)",6:9,amine_secondary:amine_secondary,6(amine_secondary) > 9(amine_secondary)