SMILES,pKa,Dissociable_Atoms,Functional_Group,Name
[nH]1ccnc1,7.334,0,amine_secondary,"1,3-Diazole (Imidazole)"
[nH]1ccnc1,6.993,0,amine_secondary,"1,3-Diazole (Imidazole)"
[nH]1ccnc1,6.685,0,amine_secondary,"1,3-Diazole (Imidazole)"
Cn1ccnc1,7.1,1,imidazole_nitrogen,1-Methylimidazole
Cn1ccnc1,7.2,1,imidazole_nitrogen,1-Methylimidazole
Cn1ccnc1,7.31,1,imidazole_nitrogen,1-Methylimidazole
CCn1ccnc1,7.21,2,imidazole_nitrogen,1-Ethylimidazole
CCCn1ccnc1,7.22,3,imidazole_nitrogen,1-Propylimidazole
CCCCn1ccnc1,7.22,4,imidazole_nitrogen,1-Butylimidazole
Cc1[nH]ccn1,7.9,9,heterocyclic_nitrogen,2-Methylimidazole
Cc1[nH]ccn1,8.04,9,heterocyclic_nitrogen,2-Methylimidazole
Cc1[nH]ccn1,8.13,9,heterocyclic_nitrogen,2-Methylimidazole
Cc1[nH]ccn1,7.86,9,heterocyclic_nitrogen,2-Methylimidazole
CCc1[nH]ccn1,7.87,10,heterocyclic_nitrogen,2-Ethylimidazole
CCc1[nH]ccn1,7.79,10,heterocyclic_nitrogen,2-Ethylimidazole
CCc1[nH]ccn1,7.99,10,heterocyclic_nitrogen,2-Ethylimidazole
CCc1[nH]ccn1,8.02,10,heterocyclic_nitrogen,2-Ethylimidazole
CC(C)c1[nH]ccn1,7.77,13,heterocyclic_nitrogen,2-(2-Propyl)imidazole
Cc1c[nH]cn1,7.55,9,heterocyclic_nitrogen,4-Methylimidazole
Cc1c[nH]cn1,7.8,9,heterocyclic_nitrogen,4-Methylimidazole
Cc1c[nH]cn1,7.54,9,heterocyclic_nitrogen,4-Methylimidazole
Cn1ccnc1C,8.21,1,imidazole_nitrogen,"1,2-Dimethylimidazole"
Cc1[nH]cc(C)n1,8.4,12,ring_nitrogen,"2,4-Dimethylimidazole"
Cc1[nH]cc(C)n1,8.57,12,ring_nitrogen,"2,4-Dimethylimidazole"
Cc1[nH]cc(C)n1,8.37,12,ring_nitrogen,"2,4-Dimethylimidazole"
CCc1[nH]cc(C)n1,8.68,13,ring_nitrogen,2-Ethyl-4-methylimidazole
CCc1[nH]cc(C)n1,8.52,13,ring_nitrogen,2-Ethyl-4-methylimidazole
Cc1[nH]cnc1C,8.19,2,amine_secondary,"4,5-Dimethylimidazole"
CCc1[nH]cnc1CC,8.19,3,amine_secondary,"4,5-Diethylimidazole"
C=Cn1ccnc1,5.9,3,imidazole_nitrogen,1-Vinylimidazole
Cc1nccn1C=C,7.09,2,imidazole_nitrogen,1-Vinyl-2-methylimidazole
CCc1nccn1C=C,6.88,3,imidazole_nitrogen,1-Vinyl-2-ethylimidazole
[nH]1ccnc1c2ccccc2,6.39,0,amine_secondary,2-Phenylimidazole
[nH]1cnc(c1)c2ccccc2,6.0,0,amine_secondary,4-Phenylimidazole
[nH]1cnc2ccccc12,5.53,0,amine_secondary,"Benzo-1,3-diazole (Benzimidazole)"
[nH]1cnc2ccccc12,5.74,0,amine_secondary,"Benzo-1,3-diazole (Benzimidazole)"
Cn1cnc2ccccc12,5.56,1,imidazole_nitrogen,1-Methylbenzimidazole
Cn1cnc2ccccc12,5.76,1,imidazole_nitrogen,1-Methylbenzimidazole
Cc1[nH]c2ccccc2n1,6.17,15,ring_nitrogen,2-Methylbenzimidazole
Cc1[nH]c2ccccc2n1,6.52,15,ring_nitrogen,2-Methylbenzimidazole
CCc1[nH]c2ccccc2n1,6.15,16,ring_nitrogen,2-Ethylbenzimidazole
Cn1c(C)nc2ccccc12,6.62,1,heterocyclic_nitrogen,"1,2-Dimethylbenzimidazole"
OCc1[nH]ccn1,7.66,10,heterocyclic_nitrogen,2-(Hydroxymethyl)imidazole
OCc1c[nH]cn1,6.46,10,heterocyclic_nitrogen,4-(Hydroxymethyl)imidazole
OCc1c[nH]cn1,7.42,10,heterocyclic_nitrogen,4-(Hydroxymethyl)imidazole
OCc1c[nH]cn1,6.38,10,heterocyclic_nitrogen,4-(Hydroxymethyl)imidazole
OCCc1nccn1C=C,6.39,0,alcohol,1-Vinyl-2-(2-hydroxyethyl)imidazole
OCCc1cn(C=C)cn1,6.05,13,heterocyclic_nitrogen,1-Vinyl-4-(2-hydroxyethyl)imidazole
OCc1[nH]c2ccccc2n1,5.28,16,ring_nitrogen,2-(Hydroxymethyl)benzimidazole
Cn1c(CO)nc2ccccc12,5.43,1,heterocyclic_nitrogen,1-Methyl-2-(hydroxymethyl)benzimidazole
CC[C@H]1[C@H](COC1=O)Cc2cncn2C,7.12,27,heterocyclic_nitrogen,1-Methyl-5-(2-oxo-3-ethyl-4-oxolylmethyl)imidazole (Pilocarpine)
CC[C@H]1[C@H](COC1=O)Cc2cncn2C,7.36,27,heterocyclic_nitrogen,1-Methyl-5-(2-oxo-3-ethyl-4-oxolylmethyl)imidazole (Pilocarpine)
CC[C@H]1[C@H](COC1=O)Cc2cncn2C,6.98,27,heterocyclic_nitrogen,1-Methyl-5-(2-oxo-3-ethyl-4-oxolylmethyl)imidazole (Pilocarpine)
Sc1[nH]ccn1,11.21,9,heterocyclic_nitrogen,2-Mercaptoimidazole
Cn1ccnc1S,11.58,1,imidazole_nitrogen,N-Methyl-2-mercaptoimidazole
NCCc1c[nH]c(S)n1,11.62,5:7,amine_secondary:thiol,4-(2-Aminoethyl)-2-mercaptoimidazole (2-Mercaptohistamine)
NCCc1c[nH]c(S)n1,9.12,5:7,amine_secondary:thiol,4-(2-Aminoethyl)-2-mercaptoimidazole (2-Mercaptohistamine)
COC(=O)[C@H](Cc1c[nH]cn1)NC(=O)[C@@H]2CCC(=O)N2,6.34,22,heterocyclic_nitrogen,L-Pyroglutamyl-L-histidine methyl ester
NC(=O)[C@@H]1CCCN1C(=O)[C@H](Cc2c[nH]cn2)NC(=O)[C@@H]3CCC(=O)N3,6.3,38,heterocyclic_nitrogen,L-Pyroglutamyl-L-histidyl-L-proline amide
NC(=O)[C@@H]1CCCN1C(=O)[C@H](Cc2c[nH]cn2)NC(=O)[C@@H]3CCC(=O)N3,6.38,38,heterocyclic_nitrogen,L-Pyroglutamyl-L-histidyl-L-proline amide
NC(=O)[C@@H]1CCCN1C(=O)[C@@H](Cc2c[nH]cn2)NC(=O)[C@@H]3CCC(=O)N3,6.15,39,heterocyclic_nitrogen,L-Pyroglutamyl-D-histidyl-L-proline amide
CCOC(=O)CNC(=O)CNC(=O)[C@H](Cc1c[nH]cn1)NC(=O)CNC(=O)CNC(=O)OCc2ccccc2,6.08,37,heterocyclic_nitrogen,Phenylmethyloxycarbonylglycylglycyl-L-histidylglycylglycine ethyl ester
CN=C(NCCSCc1nc[nH]c1C)NC#N,6.86,25,nitrile,N-Cyano-N'-methyl-N''-[2-(5-methyl-4-imidazolylmethylthio)ethyl]guanidine (Cimetidine)
CN=C(NCCSCc1nc[nH]c1C)NC#N,6.65,25,nitrile,N-Cyano-N'-methyl-N''-[2-(5-methyl-4-imidazolylmethylthio)ethyl]guanidine (Cimetidine)
Nc1[nH]c2ccccc2n1,7.45,15,ring_nitrogen,2-Aminobenzimidazole
NCCc1[nH]ccn1,9.27,0:4,amine_primary:amine_secondary,2-(2-Aminoethyl)imidazole (Isohistamine)
NCCc1[nH]ccn1,6.04,0:4,amine_primary:amine_secondary,2-(2-Aminoethyl)imidazole (Isohistamine)
NCCc1c[nH]cn1,9.81,0:5,amine_primary:amine_secondary,4-(2-Aminoethyl)imidazole (Histamine)
NCCc1c[nH]cn1,9.44,0:5,amine_primary:amine_secondary,4-(2-Aminoethyl)imidazole (Histamine)
NCCc1c[nH]cn1,9.91,0:5,amine_primary:amine_secondary,4-(2-Aminoethyl)imidazole (Histamine)
NCCc1c[nH]cn1,10.02,0:5,amine_primary:amine_secondary,4-(2-Aminoethyl)imidazole (Histamine)
NCCc1c[nH]cn1,9.8,0:5,amine_primary:amine_secondary,4-(2-Aminoethyl)imidazole (Histamine)
NCCc1c[nH]cn1,6.11,0:5,amine_primary:amine_secondary,4-(2-Aminoethyl)imidazole (Histamine)
NCCc1c[nH]cn1,5.91,0:5,amine_primary:amine_secondary,4-(2-Aminoethyl)imidazole (Histamine)
NCCc1c[nH]cn1,6.25,0:5,amine_primary:amine_secondary,4-(2-Aminoethyl)imidazole (Histamine)
NCCc1c[nH]cn1,6.46,0:5,amine_primary:amine_secondary,4-(2-Aminoethyl)imidazole (Histamine)
NCCc1c[nH]cn1,5.95,0:5,amine_primary:amine_secondary,4-(2-Aminoethyl)imidazole (Histamine)
CNCCc1c[nH]cn1,9.9,1:6,amine_secondary:amine_secondary,4-(2-Methylaminoethyl)imidazole
CNCCc1c[nH]cn1,5.87,1:6,amine_secondary:amine_secondary,4-(2-Methylaminoethyl)imidazole
CN(C)CCc1c[nH]cn1,9.33,15,heterocyclic_nitrogen,4-(2-Dimethylaminoethyl)imidazole
CN(C)CCc1c[nH]cn1,5.82,15,heterocyclic_nitrogen,4-(2-Dimethylaminoethyl)imidazole
N[C@H](CO)Cc1c[nH]cn1,8.84,0:7,amine_primary:amine_secondary,L-4-(2-Amino-3-hydroxypropyl)imidazole (Histidinol)
N[C@H](CO)Cc1c[nH]cn1,5.85,0:7,amine_primary:amine_secondary,L-4-(2-Amino-3-hydroxypropyl)imidazole (Histidinol)
COC(=O)[C@@H](N)Cc1c[nH]cn1,7.22,5:9,amine_primary:amine_secondary,L-Histidine methyl ester
COC(=O)[C@@H](N)Cc1c[nH]cn1,6.96,5:9,amine_primary:amine_secondary,L-Histidine methyl ester
COC(=O)[C@@H](N)Cc1c[nH]cn1,5.27,5:9,amine_primary:amine_secondary,L-Histidine methyl ester
COC(=O)[C@@H](N)Cc1c[nH]cn1,5.06,5:9,amine_primary:amine_secondary,L-Histidine methyl ester
COC(=O)C(O)Cc1c[nH]cn1,6.73,20,heterocyclic_nitrogen,2-Hydroxy-3-(4-imidazolyl)propanoic acid methyl ester
N[C@@H](Cc1c[nH]cn1)C(N)=O,7.63,0:9,amine_primary:amine_primary,L-Histidinamide
N[C@@H](Cc1c[nH]cn1)C(N)=O,5.7,0:9,amine_primary:amine_primary,L-Histidinamide
CC(=O)NCCc1c[nH]cn1,7.12,17,heterocyclic_nitrogen,N-Acetylhistamine
NCC(=O)NCCc1c[nH]cn1,8.04,0:4,amine_primary:amine_secondary,Glycylhistamine
NCC(=O)NCCc1c[nH]cn1,6.78,0:4,amine_primary:amine_secondary,Glycylhistamine
COC(=O)[C@H](Cc1c[nH]cn1)NC(=O)CNC(=O)CN,7.47,19:8,amine_primary:amine_secondary,Glycylglycyl-L-histidine methyl ester
COC(=O)[C@H](Cc1c[nH]cn1)NC(=O)CNC(=O)CN,6.12,19:8,amine_primary:amine_secondary,Glycylglycyl-L-histidine methyl ester
CNC(=O)[C@H](Cc1c[nH]cn1)NC(=O)CNC(=O)CN,7.87,19:1,amine_primary:amine_secondary,Glycylglycyl-L-histidine methyl amide
CNC(=O)[C@H](Cc1c[nH]cn1)NC(=O)CNC(=O)CN,6.33,19:1,amine_primary:amine_secondary,Glycylglycyl-L-histidine methyl amide
CCOC(=O)CNC(=O)CNC(=O)[C@H](Cc1c[nH]cn1)NC(=O)CNC(=O)CN,7.36,28:6,amine_primary:amine_secondary,Glycylglycyl-L-histidylglycylglycine ethyl ester
CCOC(=O)CNC(=O)CNC(=O)[C@H](Cc1c[nH]cn1)NC(=O)CNC(=O)CN,6.01,28:6,amine_primary:amine_secondary,Glycylglycyl-L-histidylglycylglycine ethyl ester
[nH]1cnc2cccnc12,4.1,7,pyridine_nitrogen,"Pyridino[2,3-d]-1,3-diazole (4-Azabenzimidazole)"
[nH]1ccnc1c2ccccn2,5.47,10,pyridine_nitrogen,2-(2-Pyridyl)imidazole
[nH]1cnc(c1)c2ccccn2,5.49,10,pyridine_nitrogen,4-(2-Pyridyl)imidazole
C(c1[nH]ccn1)c2[nH]ccn2,6.87,10:21,heterocyclic_nitrogen:heterocyclic_nitrogen,Bis(2-imidazolyl)methane
C(c1[nH]ccn1)c2[nH]ccn2,6.69,10:21,heterocyclic_nitrogen:heterocyclic_nitrogen,Bis(2-imidazolyl)methane
C(c1[nH]ccn1)c2[nH]ccn2,4.66,10:21,heterocyclic_nitrogen:heterocyclic_nitrogen,Bis(2-imidazolyl)methane
C(c1[nH]ccn1)c2[nH]ccn2,4.38,10:21,heterocyclic_nitrogen:heterocyclic_nitrogen,Bis(2-imidazolyl)methane
C(CNCc1c[nH]cn1)NCc2c[nH]cn2,9.05,2:6:9:13,amine_secondary:amine_secondary:amine_secondary:amine_secondary,"N,N'-Bis(4-imidazolylmethyl)ethylenediamine"
C(CNCc1c[nH]cn1)NCc2c[nH]cn2,6.56,2:6:9:13,amine_secondary:amine_secondary:amine_secondary:amine_secondary,"N,N'-Bis(4-imidazolylmethyl)ethylenediamine"
C(CNCc1c[nH]cn1)NCc2c[nH]cn2,4.26,2:6:9:13,amine_secondary:amine_secondary:amine_secondary:amine_secondary,"N,N'-Bis(4-imidazolylmethyl)ethylenediamine"
C(CNCc1c[nH]cn1)NCc2c[nH]cn2,3.21,2:6:9:13,amine_secondary:amine_secondary:amine_secondary:amine_secondary,"N,N'-Bis(4-imidazolylmethyl)ethylenediamine"
C(COCCNCc1c[nH]cn1)NCc2c[nH]cn2,9.16,5:9:12:16,amine_secondary:amine_secondary:amine_secondary:amine_secondary,"1,9-Di-4-imidazolyl-5-oxa-2,8-diazanonane"
C(COCCNCc1c[nH]cn1)NCc2c[nH]cn2,8.17,5:9:12:16,amine_secondary:amine_secondary:amine_secondary:amine_secondary,"1,9-Di-4-imidazolyl-5-oxa-2,8-diazanonane"
C(COCCNCc1c[nH]cn1)NCc2c[nH]cn2,4.66,5:9:12:16,amine_secondary:amine_secondary:amine_secondary:amine_secondary,"1,9-Di-4-imidazolyl-5-oxa-2,8-diazanonane"
C(COCCNCc1c[nH]cn1)NCc2c[nH]cn2,3.88,5:9:12:16,amine_secondary:amine_secondary:amine_secondary:amine_secondary,"1,9-Di-4-imidazolyl-5-oxa-2,8-diazanonane"
C(CSSCCNCc1c[nH]cn1)NCc2c[nH]cn2,8.74,6:10:13:17,amine_secondary:amine_secondary:amine_secondary:amine_secondary,"1,10-Di-4-imidazolyl-5,6-dithia-2,9-diazadecane"
C(CSSCCNCc1c[nH]cn1)NCc2c[nH]cn2,7.85,6:10:13:17,amine_secondary:amine_secondary:amine_secondary:amine_secondary,"1,10-Di-4-imidazolyl-5,6-dithia-2,9-diazadecane"
C(CSSCCNCc1c[nH]cn1)NCc2c[nH]cn2,4.62,6:10:13:17,amine_secondary:amine_secondary:amine_secondary:amine_secondary,"1,10-Di-4-imidazolyl-5,6-dithia-2,9-diazadecane"
C(CSSCCNCc1c[nH]cn1)NCc2c[nH]cn2,3.89,6:10:13:17,amine_secondary:amine_secondary:amine_secondary:amine_secondary,"1,10-Di-4-imidazolyl-5,6-dithia-2,9-diazadecane"
Cc1nsc(N)n1,2.5,9,ring_nitrogen,"5-Amino-3-methyl-1,2,4-thiadiazole"
[nH]1ccnn1,9.26,8,pyridine_nitrogen,"1,2,3-Triazole"
Brc1[nH]nnc1Br,5.37,2,amine_secondary,"4,5-Dibromo-1,2,3-triazole"
[nH]1nnc2ccccc12,8.27,0,amine_secondary,Benzotriazole
[nH]1nnc2ccccc12,8.35,0,amine_secondary,Benzotriazole
[nH]1nnc2ccccc12,8.38,0,amine_secondary,Benzotriazole
[nH]1cncn1,9.82,6:8,pyridine_nitrogen:pyridine_nitrogen,"1,2,4-Triazole"
[nH]1cncn1,9.55,6:8,pyridine_nitrogen:pyridine_nitrogen,"1,2,4-Triazole"
[nH]1cncn1,9.86,6:8,pyridine_nitrogen:pyridine_nitrogen,"1,2,4-Triazole"
[nH]1cncn1,9.94,6:8,pyridine_nitrogen:pyridine_nitrogen,"1,2,4-Triazole"
[nH]1cncn1,10.2,6:8,pyridine_nitrogen:pyridine_nitrogen,"1,2,4-Triazole"
[nH]1cncn1,10.0,6:8,pyridine_nitrogen:pyridine_nitrogen,"1,2,4-Triazole"
[nH]1cncn1,2.38,6:8,pyridine_nitrogen:pyridine_nitrogen,"1,2,4-Triazole"
[nH]1cncn1,2.29,6:8,pyridine_nitrogen:pyridine_nitrogen,"1,2,4-Triazole"
[nH]1cncn1,2.51,6:8,pyridine_nitrogen:pyridine_nitrogen,"1,2,4-Triazole"
[nH]1cncn1,2.69,6:8,pyridine_nitrogen:pyridine_nitrogen,"1,2,4-Triazole"
[nH]1cncn1,2.95,6:8,pyridine_nitrogen:pyridine_nitrogen,"1,2,4-Triazole"
[nH]1cncn1,2.37,6:8,pyridine_nitrogen:pyridine_nitrogen,"1,2,4-Triazole"
O=C1NNC(=O)N1,5.69,2,amine_secondary,"1,2,4-Triazolidin-3,5-dione (Urazole)"
Nc1n[nH]cn1,10.41,0:3,aniline:amine_secondary,"3-Amino-1,2,4-triazole"
Nc1n[nH]cn1,10.2,0:3,aniline:amine_secondary,"3-Amino-1,2,4-triazole"
Nc1n[nH]cn1,10.45,0:3,aniline:amine_secondary,"3-Amino-1,2,4-triazole"
Nc1n[nH]cn1,10.43,0:3,aniline:amine_secondary,"3-Amino-1,2,4-triazole"
Nc1n[nH]cn1,10.57,0:3,aniline:amine_secondary,"3-Amino-1,2,4-triazole"
Nc1n[nH]cn1,4.17,0:3,aniline:amine_secondary,"3-Amino-1,2,4-triazole"
Nc1n[nH]cn1,4.03,0:3,aniline:amine_secondary,"3-Amino-1,2,4-triazole"
Nc1n[nH]cn1,4.33,0:3,aniline:amine_secondary,"3-Amino-1,2,4-triazole"
Nc1n[nH]cn1,4.35,0:3,aniline:amine_secondary,"3-Amino-1,2,4-triazole"
Nc1n[nH]cn1,4.15,0:3,aniline:amine_secondary,"3-Amino-1,2,4-triazole"
[nH]1cnnn1,4.9,8,pyridine_nitrogen,Tetrazole
Cc1[nH]nnn1,5.32,9,ring_nitrogen,5-Methyltetrazole
Cc1[nH]nnn1,5.63,9,ring_nitrogen,5-Methyltetrazole
C1CC1c2[nH]nnn2,5.41,13,ring_nitrogen,5-Cyclopropyltetrazole
[nH]1nnnc1c2ccccc2,4.38,0,amine_secondary,5-Phenyltetrazole
FC(F)(F)c1[nH]nnn1,1.7,16,ring_nitrogen,5-Trifluoromethyltetrazole
Oc1[nH]nnn1,10.26,0:2,phenol:amine_secondary,5-Hydroxytetrazole
Oc1[nH]nnn1,5.4,0:2,phenol:amine_secondary,5-Hydroxytetrazole
[nH]1nnnc1Oc2ccccc2,3.49,0,amine_secondary,5-Phenoxytetrazole
CSc1[nH]nnn1,4.0,10,ring_nitrogen,5-Methylthiotetrazole
OC(=O)c1cnccn1,2.82,12,heterocyclic_nitrogen,"1,4-Diazine-2-carboxylic acid (Pyrazinecarboxylic acid)"
OC(=O)c1cnccn1,2.7,12,heterocyclic_nitrogen,"1,4-Diazine-2-carboxylic acid (Pyrazinecarboxylic acid)"
OC(=O)c1cnccn1,2.73,12,heterocyclic_nitrogen,"1,4-Diazine-2-carboxylic acid (Pyrazinecarboxylic acid)"
OC(=O)c1cnccn1,0.5,12,heterocyclic_nitrogen,"1,4-Diazine-2-carboxylic acid (Pyrazinecarboxylic acid)"
OC(=O)c1nccnc1C(O)=O,3.25,0:10,carboxylic_acid:carboxylic_acid,"1,4-Diazine-2,3-dicarboxylic acid"
OC(=O)c1nccnc1C(O)=O,2.84,0:10,carboxylic_acid:carboxylic_acid,"1,4-Diazine-2,3-dicarboxylic acid"
OC(=O)c1nccnc1C(O)=O,1.5,0:10,carboxylic_acid:carboxylic_acid,"1,4-Diazine-2,3-dicarboxylic acid"
c1ccncc1,5.24,3,pyridine_nitrogen,Pyridine (Azine)
c1ccncc1,5.12,3,pyridine_nitrogen,Pyridine (Azine)
c1ccncc1,5.22,3,pyridine_nitrogen,Pyridine (Azine)
c1ccncc1,5.34,3,pyridine_nitrogen,Pyridine (Azine)
c1ccncc1,5.45,3,pyridine_nitrogen,Pyridine (Azine)
c1ccncc1,5.19,3,pyridine_nitrogen,Pyridine (Azine)
c1ccncc1,5.48,3,pyridine_nitrogen,Pyridine (Azine)
c1ccncc1,5.64,3,pyridine_nitrogen,Pyridine (Azine)
c1ccncc1,5.2,3,pyridine_nitrogen,Pyridine (Azine)
Cc1ccccn1,5.96,6,pyridine_nitrogen,2-Methylpyridine (2-Picoline)
Cc1ccccn1,6.05,6,pyridine_nitrogen,2-Methylpyridine (2-Picoline)
Cc1ccccn1,5.95,6,pyridine_nitrogen,2-Methylpyridine (2-Picoline)
CCc1ccccn1,6.1,7,pyridine_nitrogen,2-Ethylpyridine
CCc1ccccn1,5.97,7,pyridine_nitrogen,2-Ethylpyridine
CCCc1ccccn1,6.14,8,pyridine_nitrogen,2-(Propyl)pyridine
CCCc1ccccn1,5.97,8,pyridine_nitrogen,2-(Propyl)pyridine
Cc1cccnc1,5.72,5,pyridine_nitrogen,3-Methylpyridine (3-Picoline)
Cc1cccnc1,5.8,5,pyridine_nitrogen,3-Methylpyridine (3-Picoline)
Cc1cccnc1,5.68,5,pyridine_nitrogen,3-Methylpyridine (3-Picoline)
CCc1cccnc1,5.83,6,pyridine_nitrogen,3-Ethylpyridine
CCc1cccnc1,5.72,6,pyridine_nitrogen,3-Ethylpyridine
Cc1ccncc1,6.05,4,pyridine_nitrogen,4-Methylpyridine (4-Picoline)
Cc1ccncc1,6.1,4,pyridine_nitrogen,4-Methylpyridine (4-Picoline)
Cc1ccncc1,6.19,4,pyridine_nitrogen,4-Methylpyridine (4-Picoline)
Cc1ccncc1,6.0,4,pyridine_nitrogen,4-Methylpyridine (4-Picoline)
CCc1ccncc1,6.06,5,pyridine_nitrogen,4-Ethylpyridine
CCc1ccncc1,6.33,5,pyridine_nitrogen,4-Ethylpyridine
CCc1ccncc1,6.14,5,pyridine_nitrogen,4-Ethylpyridine
CCc1ccncc1,6.02,5,pyridine_nitrogen,4-Ethylpyridine
CC(C)(C)c1ccncc1,6.2,7,pyridine_nitrogen,4-(2-Methyl-2-propyl)pyridine
CC(C)(C)c1ccncc1,5.99,7,pyridine_nitrogen,4-(2-Methyl-2-propyl)pyridine
Cc1cccnc1C,6.75,5,pyridine_nitrogen,"2,3-Dimethylpyridine (2,3-Lutidine)"
Cc1cccnc1C,6.58,5,pyridine_nitrogen,"2,3-Dimethylpyridine (2,3-Lutidine)"
Cc1ccnc(C)c1,6.67,3,pyridine_nitrogen,"2,4-Dimethylpyridine (2,4-Lutidine)"
Cc1ccnc(C)c1,6.83,3,pyridine_nitrogen,"2,4-Dimethylpyridine (2,4-Lutidine)"
Cc1ccnc(C)c1,6.63,3,pyridine_nitrogen,"2,4-Dimethylpyridine (2,4-Lutidine)"
Cc1ccc(C)nc1,6.58,5,pyridine_nitrogen,"2,5-Dimethylpyridine (2,5-Lutidine)"
Cc1ccc(C)nc1,6.42,5,pyridine_nitrogen,"2,5-Dimethylpyridine (2,5-Lutidine)"
Cc1cccc(C)n1,6.92,10,ring_nitrogen,"2,6-Dimethylpyridine (2,6-Lutidine)"
Cc1cccc(C)n1,6.73,10,ring_nitrogen,"2,6-Dimethylpyridine (2,6-Lutidine)"
Cc1ccncc1C,6.57,4,pyridine_nitrogen,"3,4-Dimethylpyridine (3,4-Lutidine)"
Cc1ccncc1C,6.47,4,pyridine_nitrogen,"3,4-Dimethylpyridine (3,4-Lutidine)"
Cc1cncc(C)c1,6.24,2,pyridine_nitrogen,"3,5-Dimethylpyridine (3,5-Lutidine)"
Cc1cncc(C)c1,6.39,2,pyridine_nitrogen,"3,5-Dimethylpyridine (3,5-Lutidine)"
Cc1cncc(C)c1,6.13,2,pyridine_nitrogen,"3,5-Dimethylpyridine (3,5-Lutidine)"
CCc1ccc(C)nc1,6.43,6,pyridine_nitrogen,5-Ethyl-2-methylpyridine
CCc1cnccc1C,6.35,3,pyridine_nitrogen,3-Ethyl-4-methylpyridine
Cc1ccc(C)c(C)n1,7.44,13,ring_nitrogen,"2,3,6-Trimethylpyridine (2,3,6-Collidine)"
Cc1cc(C)nc(C)c1,7.22,4,pyridine_nitrogen,"2,4,6-Trimethylpyridine (2,4,6-Collidine)"
C=Cc1ccccn1,5.04,7,pyridine_nitrogen,2-Vinylpyridine
C=Cc1ccccn1,4.98,7,pyridine_nitrogen,2-Vinylpyridine
C=CCc1ccccn1,5.34,8,pyridine_nitrogen,2-Prop-2-enylpyridine (2-Allylpyridine)
C=CCCc1ccccn1,5.88,9,pyridine_nitrogen,2-But-3-enylpyridine
C=CCCCc1ccccn1,5.97,10,pyridine_nitrogen,2-Pent-4-enylpyridine
C=Cc1ccncc1,5.4,5,pyridine_nitrogen,4-Vinylpyridine
c1ccc(cc1)c2ccccn2,4.64,11,pyridine_nitrogen,2-Phenylpyridine
c1ccc(cc1)c2cccnc2,4.81,9,pyridine_nitrogen,3-Phenylpyridine
c1ccc(cc1)c2ccncc2,5.38,8,pyridine_nitrogen,4-Phenylpyridine
C(c1ccccc1)c2ccccn2,5.12,12,pyridine_nitrogen,2-Benzylpyridine
C(c1ccccc1)c2ccccn2,5.13,12,pyridine_nitrogen,2-Benzylpyridine
N#Cc1cccnc1,1.64,6,pyridine_nitrogen,3-Cyanopyridine
N#Cc1cccnc1,1.17,6,pyridine_nitrogen,3-Cyanopyridine
N#CCc1cccnc1,4.06,7,pyridine_nitrogen,3-(Cyanomethyl)pyridine
N#Cc1ccncc1,1.48,5,pyridine_nitrogen,4-Cyanopyridine
Cc1cc(cc(C)n1)C#N,3.68,16,nitrile,"4-Cyano-2,6-dimethylpyridine"
[O-][N+](=O)c1ccccn1,2.06,8,pyridine_nitrogen,2-Nitropyridine
[O-][N+](=O)c1cccnc1,0.8,7,pyridine_nitrogen,3-Nitropyridine
[O-][N+](=O)c1ccncc1,1.23,6,pyridine_nitrogen,4-Nitropyridine
Cc1ccc(c(C)n1)[N+]([O-])=O,2.87,14,n_oxide,"2,6-Dimethyl-3-nitropyridine"
Cc1cc(cc(C)n1)[N+]([O-])=O,3.15,14,n_oxide,"2,6-Dimethyl-4-nitropyridine"
Cc1cc(C)c(c(C)n1)[N+]([O-])=O,3.47,8,pyridine_nitrogen,"2,4,6-Trimethyl-3-nitropyridine"
Brc1ccccn1,0.7,6,pyridine_nitrogen,2-Bromopyridine
Brc1cccnc1,3.08,5,pyridine_nitrogen,3-Bromopyridine
Brc1cccnc1,2.87,5,pyridine_nitrogen,3-Bromopyridine
Brc1ccncc1,3.68,4,pyridine_nitrogen,4-Bromopyridine
Cc1cc(Br)cc(C)n1,5.41,14,ring_nitrogen,"4-Bromo-2,6-dimethylpyridine"
Ic1cccnc1,3.46,5,pyridine_nitrogen,3-Iodopyridine
Ic1cccnc1,3.25,5,pyridine_nitrogen,3-Iodopyridine
Cc1ccc(c(C)n1)[S](O)(=O)=O,4.8,11,ring_nitrogen,"2,6-Dimethylpyridine-3-sulfonic acid"
O=C1NC=CC=C1,9.5,3:1,amine_secondary:carbonyl,"2-Hydroxypyridine (1,2-Dihydropyridin-2-one)"
O=C1NC=CC=C1,1.25,3:1,amine_secondary:carbonyl,"2-Hydroxypyridine (1,2-Dihydropyridin-2-one)"
Oc1cccc[n+]1[O-],5.81,0,phenol,2-Hydroxypyridine-N-oxide
Oc1cccnc1,8.5,5,pyridine_nitrogen,3-Hydroxypyridine
Oc1cccnc1,8.75,5,pyridine_nitrogen,3-Hydroxypyridine
Oc1cccnc1,4.89,5,pyridine_nitrogen,3-Hydroxypyridine
Oc1cccnc1,5.0,5,pyridine_nitrogen,3-Hydroxypyridine
Oc1cccnc1,5.09,5,pyridine_nitrogen,3-Hydroxypyridine
Oc1cccnc1,4.83,5,pyridine_nitrogen,3-Hydroxypyridine
O=C1C=CNC=C1,3.52,5:1,amine_secondary:carbonyl,"4-Hydroxypyridine (1,4-Dihydropyridin-4-one)"
O=C1C=CNC=C1,3.23,5:1,amine_secondary:carbonyl,"4-Hydroxypyridine (1,4-Dihydropyridin-4-one)"
ON1C=CC=CC1=O,5.86,1:0,tertiary_amine:hydroxyl_group,"1-Hydroxy-1,2-dihydropyridin-2-one"
ON1C=CC=CC1=O,1.2,1:0,tertiary_amine:hydroxyl_group,"1-Hydroxy-1,2-dihydropyridin-2-one"