SMILES,pKa,Dissociable_Atoms,Functional_Group,Name,Dissociable_Atoms_Ordered,Functional_Group_Ordered,Dissociation_Order
C[C@H](N)C(=O)N[C@@H](CC(O)=O)C(=O)N[C@@H](C)C(=O)N[C@@H](CC(O)=O)C(O)=O,3.47,9:22:25:2,carboxylic_acid:carboxylic_acid:carboxylic_acid:amine_primary,L-Alanyl-L-aspartyl-L-alanyl-L-aspartic acid,9:22:25:2,carboxylic_acid:carboxylic_acid:carboxylic_acid:amine_primary,9(carboxylic_acid) > 22(carboxylic_acid) > 25(carboxylic_acid) > 2(amine_primary)
C[C@H](N)C(=O)N[C@@H](CC(O)=O)C(=O)N[C@@H](C)C(=O)N[C@@H](CC(O)=O)C(O)=O,3.14,9:22:25:2,carboxylic_acid:carboxylic_acid:carboxylic_acid:amine_primary,L-Alanyl-L-aspartyl-L-alanyl-L-aspartic acid,9:22:25:2,carboxylic_acid:carboxylic_acid:carboxylic_acid:amine_primary,9(carboxylic_acid) > 22(carboxylic_acid) > 25(carboxylic_acid) > 2(amine_primary)
C[C@H](N)C(=O)N[C@@H](C)C(=O)N[C@@H](CC(O)=O)C(=O)N[C@@H](CC(O)=O)C(O)=O,8.31,14:22:25:2,carboxylic_acid:carboxylic_acid:carboxylic_acid:amine_primary,L-Alanyl-L-alanyl-L-aspartyl-L-aspartic acid,14:22:25:2,carboxylic_acid:carboxylic_acid:carboxylic_acid:amine_primary,14(carboxylic_acid) > 22(carboxylic_acid) > 25(carboxylic_acid) > 2(amine_primary)
C[C@H](N)C(=O)N[C@@H](C)C(=O)N[C@@H](CC(O)=O)C(=O)N[C@@H](CC(O)=O)C(O)=O,4.67,14:22:25:2,carboxylic_acid:carboxylic_acid:carboxylic_acid:amine_primary,L-Alanyl-L-alanyl-L-aspartyl-L-aspartic acid,14:22:25:2,carboxylic_acid:carboxylic_acid:carboxylic_acid:amine_primary,14(carboxylic_acid) > 22(carboxylic_acid) > 25(carboxylic_acid) > 2(amine_primary)
C[C@H](N)C(=O)N[C@@H](C)C(=O)N[C@@H](CC(O)=O)C(=O)N[C@@H](CC(O)=O)C(O)=O,3.51,14:22:25:2,carboxylic_acid:carboxylic_acid:carboxylic_acid:amine_primary,L-Alanyl-L-alanyl-L-aspartyl-L-aspartic acid,14:22:25:2,carboxylic_acid:carboxylic_acid:carboxylic_acid:amine_primary,14(carboxylic_acid) > 22(carboxylic_acid) > 25(carboxylic_acid) > 2(amine_primary)
C[C@H](N)C(=O)N[C@@H](C)C(=O)N[C@@H](CC(O)=O)C(=O)N[C@@H](CC(O)=O)C(O)=O,3.43,14:22:25:2,carboxylic_acid:carboxylic_acid:carboxylic_acid:amine_primary,L-Alanyl-L-alanyl-L-aspartyl-L-aspartic acid,14:22:25:2,carboxylic_acid:carboxylic_acid:carboxylic_acid:amine_primary,14(carboxylic_acid) > 22(carboxylic_acid) > 25(carboxylic_acid) > 2(amine_primary)
NCC(=O)N1CCC[C@H]1C(=O)NCC(=O)N[C@@H](Cc2ccc(O)cc2)C(O)=O,9.98,26:0,carboxylic_acid:amine_primary,Glycyl-L-prolylglycyl-L-tyrosine,26:0,carboxylic_acid:amine_primary,26(carboxylic_acid) > 0(amine_primary)
NCC(=O)N1CCC[C@H]1C(=O)NCC(=O)N[C@@H](Cc2ccc(O)cc2)C(O)=O,8.43,26:0,carboxylic_acid:amine_primary,Glycyl-L-prolylglycyl-L-tyrosine,26:0,carboxylic_acid:amine_primary,26(carboxylic_acid) > 0(amine_primary)
NCC(=O)N1CCC[C@H]1C(=O)N[C@@H](Cc2ccc(O)cc2)C(=O)NCC(O)=O,10.27,26:0:11,carboxylic_acid:amine_primary:amine_secondary,Glycyl-L-prolyl-L-tyrosylglycine,26:0:11,carboxylic_acid:amine_primary:amine_secondary,26(carboxylic_acid) > 0(amine_primary) > 11(amine_secondary)
NCC(=O)N1CCC[C@H]1C(=O)N[C@@H](Cc2ccc(O)cc2)C(=O)NCC(O)=O,8.51,26:0:11,carboxylic_acid:amine_primary:amine_secondary,Glycyl-L-prolyl-L-tyrosylglycine,26:0:11,carboxylic_acid:amine_primary:amine_secondary,26(carboxylic_acid) > 0(amine_primary) > 11(amine_secondary)
NCC(=O)N1CCC[C@H]1C(=O)N[C@@H](Cc2ccc(O)cc2)C(=O)NCC(O)=O,3.43,26:0:11,carboxylic_acid:amine_primary:amine_secondary,Glycyl-L-prolyl-L-tyrosylglycine,26:0:11,carboxylic_acid:amine_primary:amine_secondary,26(carboxylic_acid) > 0(amine_primary) > 11(amine_secondary)
N[C@@H](Cc1ccc(O)cc1)C(=O)N2CCC[C@H]2C(=O)NCC(=O)NCC(O)=O,9.76,26:0:19,carboxylic_acid:amine_primary:amine_secondary,L-Tyrosyl-L-prolylglycylglycine,26:0:19,carboxylic_acid:amine_primary:amine_secondary,26(carboxylic_acid) > 0(amine_primary) > 19(amine_secondary)
N[C@@H](Cc1ccc(O)cc1)C(=O)N2CCC[C@H]2C(=O)NCC(=O)NCC(O)=O,7.59,26:0:19,carboxylic_acid:amine_primary:amine_secondary,L-Tyrosyl-L-prolylglycylglycine,26:0:19,carboxylic_acid:amine_primary:amine_secondary,26(carboxylic_acid) > 0(amine_primary) > 19(amine_secondary)
N[C@@H](Cc1ccc(O)cc1)C(=O)N2CCC[C@H]2C(=O)NCC(=O)NCC(O)=O,3.29,26:0:19,carboxylic_acid:amine_primary:amine_secondary,L-Tyrosyl-L-prolylglycylglycine,26:0:19,carboxylic_acid:amine_primary:amine_secondary,26(carboxylic_acid) > 0(amine_primary) > 19(amine_secondary)
N[C@@H](Cc1ccc(O)cc1)C(=O)N2CCC[C@H]2C(=O)NCC(=O)N[C@@H](Cc3ccc(O)cc3)C(O)=O,10.12,34:0:19:23,carboxylic_acid:amine_primary:amine_secondary:amine_secondary,L-Tyrosyl-L-prolylglycyl-L-tyrosine,34:0:19:23,carboxylic_acid:amine_primary:amine_secondary:amine_secondary,34(carboxylic_acid) > 0(amine_primary) > 19(amine_secondary) > 23(amine_secondary)
N[C@@H](Cc1ccc(O)cc1)C(=O)N2CCC[C@H]2C(=O)NCC(=O)N[C@@H](Cc3ccc(O)cc3)C(O)=O,9.75,34:0:19:23,carboxylic_acid:amine_primary:amine_secondary:amine_secondary,L-Tyrosyl-L-prolylglycyl-L-tyrosine,34:0:19:23,carboxylic_acid:amine_primary:amine_secondary:amine_secondary,34(carboxylic_acid) > 0(amine_primary) > 19(amine_secondary) > 23(amine_secondary)
N[C@@H](Cc1ccc(O)cc1)C(=O)N2CCC[C@H]2C(=O)NCC(=O)N[C@@H](Cc3ccc(O)cc3)C(O)=O,7.61,34:0:19:23,carboxylic_acid:amine_primary:amine_secondary:amine_secondary,L-Tyrosyl-L-prolylglycyl-L-tyrosine,34:0:19:23,carboxylic_acid:amine_primary:amine_secondary:amine_secondary,34(carboxylic_acid) > 0(amine_primary) > 19(amine_secondary) > 23(amine_secondary)
N[C@@H](Cc1ccc(O)cc1)C(=O)N2CCC[C@H]2C(=O)NCC(=O)N[C@@H](Cc3ccc(O)cc3)C(O)=O,2.74,34:0:19:23,carboxylic_acid:amine_primary:amine_secondary:amine_secondary,L-Tyrosyl-L-prolylglycyl-L-tyrosine,34:0:19:23,carboxylic_acid:amine_primary:amine_secondary:amine_secondary,34(carboxylic_acid) > 0(amine_primary) > 19(amine_secondary) > 23(amine_secondary)
C[C@H](N)C(=O)N[C@@H](CC(O)=O)C(=O)N[C@@H](CO)C(=O)NCC(O)=O,8.33,9:22:2,carboxylic_acid:carboxylic_acid:amine_primary,L-Alanyl-L-aspartyl-L-serylglycine,9:22:2,carboxylic_acid:carboxylic_acid:amine_primary,9(carboxylic_acid) > 22(carboxylic_acid) > 2(amine_primary)
C[C@H](N)C(=O)N[C@@H](CC(O)=O)C(=O)N[C@@H](CO)C(=O)NCC(O)=O,4.02,9:22:2,carboxylic_acid:carboxylic_acid:amine_primary,L-Alanyl-L-aspartyl-L-serylglycine,9:22:2,carboxylic_acid:carboxylic_acid:amine_primary,9(carboxylic_acid) > 22(carboxylic_acid) > 2(amine_primary)
C[C@H](N)C(=O)N[C@@H](CC(O)=O)C(=O)N[C@@H](CO)C(=O)NCC(O)=O,3.21,9:22:2,carboxylic_acid:carboxylic_acid:amine_primary,L-Alanyl-L-aspartyl-L-serylglycine,9:22:2,carboxylic_acid:carboxylic_acid:amine_primary,9(carboxylic_acid) > 22(carboxylic_acid) > 2(amine_primary)
NCCCC[C@H](NC(=O)[C@@H]1CCCN1C(=O)CNC(=O)CN)C(O)=O,9.88,23:0:21,carboxylic_acid:amine_primary:amine_primary,Glycylglycyl-L-prolyl-L-lysine,23:0:21,carboxylic_acid:amine_primary:amine_primary,23(carboxylic_acid) > 0(amine_primary) > 21(amine_primary)
NCCCC[C@H](NC(=O)[C@@H]1CCCN1C(=O)CNC(=O)CN)C(O)=O,8.03,23:0:21,carboxylic_acid:amine_primary:amine_primary,Glycylglycyl-L-prolyl-L-lysine,23:0:21,carboxylic_acid:amine_primary:amine_primary,23(carboxylic_acid) > 0(amine_primary) > 21(amine_primary)
NCCCC[C@H](NC(=O)[C@@H]1CCCN1C(=O)CNC(=O)CN)C(O)=O,3.19,23:0:21,carboxylic_acid:amine_primary:amine_primary,Glycylglycyl-L-prolyl-L-lysine,23:0:21,carboxylic_acid:amine_primary:amine_primary,23(carboxylic_acid) > 0(amine_primary) > 21(amine_primary)
C[C@H](N)C(=O)N[C@@H](CCCCN)C(=O)N[C@@H](C)C(=O)N[C@@H](C)C(O)=O,10.47,23:2:11,carboxylic_acid:amine_primary:amine_primary,L-Alanyl-L-lysyl-L-alanyl-L-alanine,23:2:11,carboxylic_acid:amine_primary:amine_primary,23(carboxylic_acid) > 2(amine_primary) > 11(amine_primary)
C[C@H](N)C(=O)N[C@@H](CCCCN)C(=O)N[C@@H](C)C(=O)N[C@@H](C)C(O)=O,7.9,23:2:11,carboxylic_acid:amine_primary:amine_primary,L-Alanyl-L-lysyl-L-alanyl-L-alanine,23:2:11,carboxylic_acid:amine_primary:amine_primary,23(carboxylic_acid) > 2(amine_primary) > 11(amine_primary)
C[C@H](N)C(=O)N[C@@H](CCCCN)C(=O)N[C@@H](C)C(=O)N[C@@H](C)C(O)=O,3.47,23:2:11,carboxylic_acid:amine_primary:amine_primary,L-Alanyl-L-lysyl-L-alanyl-L-alanine,23:2:11,carboxylic_acid:amine_primary:amine_primary,23(carboxylic_acid) > 2(amine_primary) > 11(amine_primary)
C[C@H](N)C(=O)N[C@H](CCCCN)C(=O)N[C@@H](C)C(=O)N[C@@H](C)C(O)=O,10.26,23:2:11,carboxylic_acid:amine_primary:amine_primary,L-Alanyl-D-lysyl-L-alanyl-L-alanine,23:2:11,carboxylic_acid:amine_primary:amine_primary,23(carboxylic_acid) > 2(amine_primary) > 11(amine_primary)
C[C@H](N)C(=O)N[C@H](CCCCN)C(=O)N[C@@H](C)C(=O)N[C@@H](C)C(O)=O,7.9,23:2:11,carboxylic_acid:amine_primary:amine_primary,L-Alanyl-D-lysyl-L-alanyl-L-alanine,23:2:11,carboxylic_acid:amine_primary:amine_primary,23(carboxylic_acid) > 2(amine_primary) > 11(amine_primary)
C[C@H](N)C(=O)N[C@H](CCCCN)C(=O)N[C@@H](C)C(=O)N[C@@H](C)C(O)=O,3.21,23:2:11,carboxylic_acid:amine_primary:amine_primary,L-Alanyl-D-lysyl-L-alanyl-L-alanine,23:2:11,carboxylic_acid:amine_primary:amine_primary,23(carboxylic_acid) > 2(amine_primary) > 11(amine_primary)
CC(C)[C@H](NC(=O)[C@H](CC(O)=O)NC(=O)[C@H](CCCCN)NC(=O)[C@@H](N)CCCNC(N)=N)C(O)=O,10.48,10:34:20:25,carboxylic_acid:carboxylic_acid:amine_primary:amine_primary,L-Arginyl-L-lysyl-L-aspartyl-L-valine,10:34:20:25,carboxylic_acid:carboxylic_acid:amine_primary:amine_primary,10(carboxylic_acid) > 34(carboxylic_acid) > 20(amine_primary) > 25(amine_primary)
CC(C)[C@H](NC(=O)[C@H](CC(O)=O)NC(=O)[C@H](CCCCN)NC(=O)[C@@H](N)CCCNC(N)=N)C(O)=O,7.34,10:34:20:25,carboxylic_acid:carboxylic_acid:amine_primary:amine_primary,L-Arginyl-L-lysyl-L-aspartyl-L-valine,10:34:20:25,carboxylic_acid:carboxylic_acid:amine_primary:amine_primary,10(carboxylic_acid) > 34(carboxylic_acid) > 20(amine_primary) > 25(amine_primary)
CC(C)[C@H](NC(=O)[C@H](CC(O)=O)NC(=O)[C@H](CCCCN)NC(=O)[C@@H](N)CCCNC(N)=N)C(O)=O,3.89,10:34:20:25,carboxylic_acid:carboxylic_acid:amine_primary:amine_primary,L-Arginyl-L-lysyl-L-aspartyl-L-valine,10:34:20:25,carboxylic_acid:carboxylic_acid:amine_primary:amine_primary,10(carboxylic_acid) > 34(carboxylic_acid) > 20(amine_primary) > 25(amine_primary)
CC(C)[C@H](NC(=O)[C@H](CC(O)=O)NC(=O)[C@H](CCCCN)NC(=O)[C@@H](N)CCCNC(N)=N)C(O)=O,3.04,10:34:20:25,carboxylic_acid:carboxylic_acid:amine_primary:amine_primary,L-Arginyl-L-lysyl-L-aspartyl-L-valine,10:34:20:25,carboxylic_acid:carboxylic_acid:amine_primary:amine_primary,10(carboxylic_acid) > 34(carboxylic_acid) > 20(amine_primary) > 25(amine_primary)
NCC(=O)NCC(=O)NCC(=O)N[C@@H](Cc1c[nH]cn1)C(O)=O,7.99,21:0:4,carboxylic_acid:amine_primary:amine_secondary,Glycylglycylglycyl-L-histidine,21:0:4,carboxylic_acid:amine_primary:amine_secondary,21(carboxylic_acid) > 0(amine_primary) > 4(amine_secondary)
NCC(=O)NCC(=O)NCC(=O)N[C@@H](Cc1c[nH]cn1)C(O)=O,6.73,21:0:4,carboxylic_acid:amine_primary:amine_secondary,Glycylglycylglycyl-L-histidine,21:0:4,carboxylic_acid:amine_primary:amine_secondary,21(carboxylic_acid) > 0(amine_primary) > 4(amine_secondary)
NCC(=O)NCC(=O)NCC(=O)N[C@@H](Cc1c[nH]cn1)C(O)=O,2.9,21:0:4,carboxylic_acid:amine_primary:amine_secondary,Glycylglycylglycyl-L-histidine,21:0:4,carboxylic_acid:amine_primary:amine_secondary,21(carboxylic_acid) > 0(amine_primary) > 4(amine_secondary)
C[C@H](N)C(=O)NCC(=O)NCC(=O)N[C@@H](Cc1c[nH]cn1)C(O)=O,8.14,22:2:5,carboxylic_acid:amine_primary:amine_secondary,L-Alanylglycylglycyl-L-histidine,22:2:5,carboxylic_acid:amine_primary:amine_secondary,22(carboxylic_acid) > 2(amine_primary) > 5(amine_secondary)
C[C@H](N)C(=O)NCC(=O)NCC(=O)N[C@@H](Cc1c[nH]cn1)C(O)=O,6.89,22:2:5,carboxylic_acid:amine_primary:amine_secondary,L-Alanylglycylglycyl-L-histidine,22:2:5,carboxylic_acid:amine_primary:amine_secondary,22(carboxylic_acid) > 2(amine_primary) > 5(amine_secondary)
C[C@H](N)C(=O)NCC(=O)NCC(=O)N[C@@H](Cc1c[nH]cn1)C(O)=O,2.62,22:2:5,carboxylic_acid:amine_primary:amine_secondary,L-Alanylglycylglycyl-L-histidine,22:2:5,carboxylic_acid:amine_primary:amine_secondary,22(carboxylic_acid) > 2(amine_primary) > 5(amine_secondary)
C[C@H](NC(=O)[C@H](Cc1c[nH]cn1)NC(=O)CNC(=O)CN)C(O)=O,7.87,22:20:2,carboxylic_acid:amine_primary:amine_secondary,Glycylglycyl-L-histidyl-L-alanine,22:20:2,carboxylic_acid:amine_primary:amine_secondary,22(carboxylic_acid) > 20(amine_primary) > 2(amine_secondary)
C[C@H](NC(=O)[C@H](Cc1c[nH]cn1)NC(=O)CNC(=O)CN)C(O)=O,6.63,22:20:2,carboxylic_acid:amine_primary:amine_secondary,Glycylglycyl-L-histidyl-L-alanine,22:20:2,carboxylic_acid:amine_primary:amine_secondary,22(carboxylic_acid) > 20(amine_primary) > 2(amine_secondary)
C[C@H](NC(=O)[C@H](Cc1c[nH]cn1)NC(=O)CNC(=O)CN)C(O)=O,3.04,22:20:2,carboxylic_acid:amine_primary:amine_secondary,Glycylglycyl-L-histidyl-L-alanine,22:20:2,carboxylic_acid:amine_primary:amine_secondary,22(carboxylic_acid) > 20(amine_primary) > 2(amine_secondary)
NCC(=O)N[C@@H](Cc1c[nH]cn1)C(=O)NCC(=O)N[C@@H](Cc2c[nH]cn2)C(O)=O,8.0,27:0:4:9,carboxylic_acid:amine_primary:amine_secondary:amine_secondary,Glycyl-L-histidylglycyl-L-histidine,27:0:4:9,carboxylic_acid:amine_primary:amine_secondary:amine_secondary,27(carboxylic_acid) > 0(amine_primary) > 4(amine_secondary) > 9(amine_secondary)
NCC(=O)N[C@@H](Cc1c[nH]cn1)C(=O)NCC(=O)N[C@@H](Cc2c[nH]cn2)C(O)=O,6.95,27:0:4:9,carboxylic_acid:amine_primary:amine_secondary:amine_secondary,Glycyl-L-histidylglycyl-L-histidine,27:0:4:9,carboxylic_acid:amine_primary:amine_secondary:amine_secondary,27(carboxylic_acid) > 0(amine_primary) > 4(amine_secondary) > 9(amine_secondary)
NCC(=O)N[C@@H](Cc1c[nH]cn1)C(=O)NCC(=O)N[C@@H](Cc2c[nH]cn2)C(O)=O,6.0,27:0:4:9,carboxylic_acid:amine_primary:amine_secondary:amine_secondary,Glycyl-L-histidylglycyl-L-histidine,27:0:4:9,carboxylic_acid:amine_primary:amine_secondary:amine_secondary,27(carboxylic_acid) > 0(amine_primary) > 4(amine_secondary) > 9(amine_secondary)
NCC(=O)N[C@@H](Cc1c[nH]cn1)C(=O)NCC(=O)N[C@@H](Cc2c[nH]cn2)C(O)=O,2.57,27:0:4:9,carboxylic_acid:amine_primary:amine_secondary:amine_secondary,Glycyl-L-histidylglycyl-L-histidine,27:0:4:9,carboxylic_acid:amine_primary:amine_secondary:amine_secondary,27(carboxylic_acid) > 0(amine_primary) > 4(amine_secondary) > 9(amine_secondary)
C[C@H](NC(=O)OC(C)(C)C)C(=O)NCC(=O)NCC(=O)N[C@@H](Cc1c[nH]cn1)C(O)=O,7.19,29:2,carboxylic_acid:amine_secondary,N-(2-Methyl-2-propyloxycarbonyl)-L-alanylglycylglycyl-L-histidine,29:2,carboxylic_acid:amine_secondary,29(carboxylic_acid) > 2(amine_secondary)
C[C@H](NC(=O)OC(C)(C)C)C(=O)NCC(=O)NCC(=O)N[C@@H](Cc1c[nH]cn1)C(O)=O,2.83,29:2,carboxylic_acid:amine_secondary,N-(2-Methyl-2-propyloxycarbonyl)-L-alanylglycylglycyl-L-histidine,29:2,carboxylic_acid:amine_secondary,29(carboxylic_acid) > 2(amine_secondary)
COC(=O)[C@H](Cc1c[nH]cn1)NC(=O)CNC(=O)CNC(=O)[C@H](C)N,8.05,24:8,amine_primary:amine_secondary,L-Alanylglycylglycyl-L-histidine methylester,24:8,amine_primary:amine_secondary,24(amine_primary) > 8(amine_secondary)
COC(=O)[C@H](Cc1c[nH]cn1)NC(=O)CNC(=O)CNC(=O)[C@H](C)N,6.62,24:8,amine_primary:amine_secondary,L-Alanylglycylglycyl-L-histidine methylester,24:8,amine_primary:amine_secondary,24(amine_primary) > 8(amine_secondary)
C[C@H](N)C(=O)NCC(=O)N1CCC[C@H]1C(=O)N[C@@H](Cc2c[nH]cn2)C(O)=O,8.16,25:2:5,carboxylic_acid:amine_primary:amine_secondary,L-Alanylglycyl-L-prolyl-L-histidine,25:2:5,carboxylic_acid:amine_primary:amine_secondary,25(carboxylic_acid) > 2(amine_primary) > 5(amine_secondary)
C[C@H](N)C(=O)NCC(=O)N1CCC[C@H]1C(=O)N[C@@H](Cc2c[nH]cn2)C(O)=O,6.8,25:2:5,carboxylic_acid:amine_primary:amine_secondary,L-Alanylglycyl-L-prolyl-L-histidine,25:2:5,carboxylic_acid:amine_primary:amine_secondary,25(carboxylic_acid) > 2(amine_primary) > 5(amine_secondary)
C[C@H](N)C(=O)NCC(=O)N1CCC[C@H]1C(=O)N[C@@H](Cc2c[nH]cn2)C(O)=O,2.63,25:2:5,carboxylic_acid:amine_primary:amine_secondary,L-Alanylglycyl-L-prolyl-L-histidine,25:2:5,carboxylic_acid:amine_primary:amine_secondary,25(carboxylic_acid) > 2(amine_primary) > 5(amine_secondary)
NCC(=O)NCC(=O)NCC(=O)NCC(=O)NCC(O)=O,7.85,19:0,carboxylic_acid:amine_primary,Glycylglycylglycylglycylglycine (Pentaglycine),19:0,carboxylic_acid:amine_primary,19(carboxylic_acid) > 0(amine_primary)
NCC(=O)NCC(=O)NCC(=O)NCC(=O)NCC(O)=O,7.86,19:0,carboxylic_acid:amine_primary,Glycylglycylglycylglycylglycine (Pentaglycine),19:0,carboxylic_acid:amine_primary,19(carboxylic_acid) > 0(amine_primary)
NCC(=O)NCC(=O)NCC(=O)NCC(=O)NCC(O)=O,3.27,19:0,carboxylic_acid:amine_primary,Glycylglycylglycylglycylglycine (Pentaglycine),19:0,carboxylic_acid:amine_primary,19(carboxylic_acid) > 0(amine_primary)
NCC(=O)NCC(=O)NCC(=O)NCC(=O)NCC(O)=O,3.05,19:0,carboxylic_acid:amine_primary,Glycylglycylglycylglycylglycine (Pentaglycine),19:0,carboxylic_acid:amine_primary,19(carboxylic_acid) > 0(amine_primary)
C[C@H](NC(=O)CNC(=O)CNC(=O)CNC(=O)CN)C(O)=O,7.86,20:18,carboxylic_acid:amine_primary,Glycylglycylglycylglycyl-L-alanine,20:18,carboxylic_acid:amine_primary,20(carboxylic_acid) > 18(amine_primary)
C[C@H](NC(=O)CNC(=O)CNC(=O)CNC(=O)CN)C(O)=O,3.37,20:18,carboxylic_acid:amine_primary,Glycylglycylglycylglycyl-L-alanine,20:18,carboxylic_acid:amine_primary,20(carboxylic_acid) > 18(amine_primary)
C[C@H](N)C(=O)NCC(=O)NCC(=O)NCC(=O)NCC(O)=O,7.86,20:2,carboxylic_acid:amine_primary,L-Alanylglycylglycylglycylglycine,20:2,carboxylic_acid:amine_primary,20(carboxylic_acid) > 2(amine_primary)
C[C@H](N)C(=O)NCC(=O)NCC(=O)NCC(=O)NCC(O)=O,3.38,20:2,carboxylic_acid:amine_primary,L-Alanylglycylglycylglycylglycine,20:2,carboxylic_acid:amine_primary,20(carboxylic_acid) > 2(amine_primary)
NCC(=O)N1CCC[C@H]1C(=O)NCC(=O)N2CCC[C@H]2C(=O)NCC(O)=O,8.36,25:0,carboxylic_acid:amine_primary,Glycyl-L-prolylglycyl-L-prolylglycine,25:0,carboxylic_acid:amine_primary,25(carboxylic_acid) > 0(amine_primary)
NCC(=O)N1CCC[C@H]1C(=O)NCC(=O)N2CCC[C@H]2C(=O)NCC(O)=O,3.31,25:0,carboxylic_acid:amine_primary,Glycyl-L-prolylglycyl-L-prolylglycine,25:0,carboxylic_acid:amine_primary,25(carboxylic_acid) > 0(amine_primary)
NCC(=O)N1CCC[C@H]1C(=O)NCC(=O)N2CCC[C@H]2C(=O)N[C@@H](CCC(O)=O)C(O)=O,8.53,27:30:0,carboxylic_acid:carboxylic_acid:amine_primary,Glycyl-L-prolylglycyl-L-prolylglutamic acid,27:30:0,carboxylic_acid:carboxylic_acid:amine_primary,27(carboxylic_acid) > 30(carboxylic_acid) > 0(amine_primary)
NCC(=O)N1CCC[C@H]1C(=O)NCC(=O)N2CCC[C@H]2C(=O)N[C@@H](CCC(O)=O)C(O)=O,4.4,27:30:0,carboxylic_acid:carboxylic_acid:amine_primary,Glycyl-L-prolylglycyl-L-prolylglutamic acid,27:30:0,carboxylic_acid:carboxylic_acid:amine_primary,27(carboxylic_acid) > 30(carboxylic_acid) > 0(amine_primary)
NCC(=O)N1CCC[C@H]1C(=O)NCC(=O)N2CCC[C@H]2C(=O)N[C@@H](CCC(O)=O)C(O)=O,2.46,27:30:0,carboxylic_acid:carboxylic_acid:amine_primary,Glycyl-L-prolylglycyl-L-prolylglutamic acid,27:30:0,carboxylic_acid:carboxylic_acid:amine_primary,27(carboxylic_acid) > 30(carboxylic_acid) > 0(amine_primary)
NCC(=O)N1CCC[C@H]1C(=O)NCC(=O)N2CCC[C@H]2C(=O)N[C@@H](CCC(N)=O)C(O)=O,8.29,30:0,carboxylic_acid:amine_primary,Glycyl-L-prolylglycyl-L-prolyl-L-glutamine,30:0,carboxylic_acid:amine_primary,30(carboxylic_acid) > 0(amine_primary)
NCC(=O)N1CCC[C@H]1C(=O)NCC(=O)N2CCC[C@H]2C(=O)N[C@@H](CCC(N)=O)C(O)=O,3.22,30:0,carboxylic_acid:amine_primary,Glycyl-L-prolylglycyl-L-prolyl-L-glutamine,30:0,carboxylic_acid:amine_primary,30(carboxylic_acid) > 0(amine_primary)
N[C@@H](CCCNC(N)=N)C(=O)N1CCC[C@H]1C(=O)NCC(=O)N2CCC[C@H]2C(=O)NCC(O)=O,7.47,32:0,carboxylic_acid:amine_primary,L-Arginyl-L-prolylglycyl-L-prolylglycine,32:0,carboxylic_acid:amine_primary,32(carboxylic_acid) > 0(amine_primary)
N[C@@H](CCCNC(N)=N)C(=O)N1CCC[C@H]1C(=O)NCC(=O)N2CCC[C@H]2C(=O)NCC(O)=O,3.39,32:0,carboxylic_acid:amine_primary,L-Arginyl-L-prolylglycyl-L-prolylglycine,32:0,carboxylic_acid:amine_primary,32(carboxylic_acid) > 0(amine_primary)
NCC(=O)N1CCC[C@H]1C(=O)N2CCC[C@H]2C(=O)NCC(=O)NCC(O)=O,8.3,25:0,carboxylic_acid:amine_primary,Glycyl-L-prolyl-L-prolylglycylglycine,25:0,carboxylic_acid:amine_primary,25(carboxylic_acid) > 0(amine_primary)
NCC(=O)N1CCC[C@H]1C(=O)N2CCC[C@H]2C(=O)NCC(=O)NCC(O)=O,3.28,25:0,carboxylic_acid:amine_primary,Glycyl-L-prolyl-L-prolylglycylglycine,25:0,carboxylic_acid:amine_primary,25(carboxylic_acid) > 0(amine_primary)