SMILES,pKa,Dissociable_Atoms,Functional_Group,Name
O[P](O)(=O)CBr,1.2,0:1,phosphate:phosphate,Bromomethylphosphonic acid
O[P](O)(=O)C(Br)Br,5.4,0:1,phosphate:phosphate,Dibromomethylphosphonic acid
O[P](O)(=O)C(Br)Br,0.8,0:1,phosphate:phosphate,Dibromomethylphosphonic acid
O[P](O)(=O)CCBr,6.9,0:1,phosphate:phosphate,2-Bromoethylphosphonic acid
O[P](O)(=O)CCBr,1.6,0:1,phosphate:phosphate,2-Bromoethylphosphonic acid
O[P](O)(=O)CI,6.44,0:1,phosphate:phosphate,Iodomethylphosphonic acid
O[P](O)(=O)CI,1.3,0:1,phosphate:phosphate,Iodomethylphosphonic acid
Oc1cccc(c1)[P](O)(O)=O,10.03,0:7,phenol:phosphate,3-Hydroxyphenylphosphonic acid
Oc1cccc(c1)[P](O)(O)=O,7.24,0:7,phenol:phosphate,3-Hydroxyphenylphosphonic acid
Oc1cccc(c1)[P](O)(O)=O,1.8,0:7,phenol:phosphate,3-Hydroxyphenylphosphonic acid
Oc1ccc(cc1)[P](O)(O)=O,10.56,0:7,phenol:phosphate,4-Hydroxyphenylphosphonic acid
Oc1ccc(cc1)[P](O)(O)=O,7.69,0:7,phenol:phosphate,4-Hydroxyphenylphosphonic acid
Oc1ccc(cc1)[P](O)(O)=O,2.0,0:7,phenol:phosphate,4-Hydroxyphenylphosphonic acid
OC[P](O)(O)=O,6.97,0:2,alcohol:phosphate,Hydroxymethylphosphonic acid
OC[P](O)(O)=O,7.01,0:2,alcohol:phosphate,Hydroxymethylphosphonic acid
OC[P](O)(O)=O,7.36,0:2,alcohol:phosphate,Hydroxymethylphosphonic acid
OC[P](O)(O)=O,1.7,0:2,alcohol:phosphate,Hydroxymethylphosphonic acid
CCOC[P](O)(O)=O,7.02,4,phosphate,Ethoxymethylphosphonic acid
COc1ccccc1[P](O)(O)=O,7.9,8:9,phosphate:phosphate,2-Methoxyphenylphosphonic acid
COc1ccccc1[P](O)(O)=O,2.19,8:9,phosphate:phosphate,2-Methoxyphenylphosphonic acid
COc1ccc(cc1)[P](O)(O)=O,7.66,8:9,phosphate:phosphate,4-Methoxyphenylphosphonic acid
COc1ccc(cc1)[P](O)(O)=O,2.05,8:9,phosphate:phosphate,4-Methoxyphenylphosphonic acid
CCSC[P](O)(O)=O,7.06,4:5,phosphate:phosphate,Ethylthiomethylphosphonic acid
CCSC[P](O)(O)=O,1.8,4:5,phosphate:phosphate,Ethylthiomethylphosphonic acid
O[P](O)(=O)C[P](O)(O)=O,10.33,0:1:2:5,phosphate:phosphate:phosphate:phosphate,Methylenediphosphonic acid
O[P](O)(=O)C[P](O)(O)=O,10.66,0:1:2:5,phosphate:phosphate:phosphate:phosphate,Methylenediphosphonic acid
O[P](O)(=O)C[P](O)(O)=O,10.54,0:1:2:5,phosphate:phosphate:phosphate:phosphate,Methylenediphosphonic acid
O[P](O)(=O)C[P](O)(O)=O,8.9,0:1:2:5,phosphate:phosphate:phosphate:phosphate,Methylenediphosphonic acid
O[P](O)(=O)C[P](O)(O)=O,10.96,0:1:2:5,phosphate:phosphate:phosphate:phosphate,Methylenediphosphonic acid
O[P](O)(=O)C[P](O)(O)=O,6.87,0:1:2:5,phosphate:phosphate:phosphate:phosphate,Methylenediphosphonic acid
O[P](O)(=O)C[P](O)(O)=O,7.05,0:1:2:5,phosphate:phosphate:phosphate:phosphate,Methylenediphosphonic acid
O[P](O)(=O)C[P](O)(O)=O,6.34,0:1:2:5,phosphate:phosphate:phosphate:phosphate,Methylenediphosphonic acid
O[P](O)(=O)C[P](O)(O)=O,7.4,0:1:2:5,phosphate:phosphate:phosphate:phosphate,Methylenediphosphonic acid
O[P](O)(=O)C[P](O)(O)=O,2.5,0:1:2:5,phosphate:phosphate:phosphate:phosphate,Methylenediphosphonic acid
O[P](O)(=O)C[P](O)(O)=O,2.76,0:1:2:5,phosphate:phosphate:phosphate:phosphate,Methylenediphosphonic acid
O[P](O)(=O)C[P](O)(O)=O,2.49,0:1:2:5,phosphate:phosphate:phosphate:phosphate,Methylenediphosphonic acid
O[P](O)(=O)C[P](O)(O)=O,2.35,0:1:2:5,phosphate:phosphate:phosphate:phosphate,Methylenediphosphonic acid
O[P](O)(=O)C[P](O)(O)=O,2.96,0:1:2:5,phosphate:phosphate:phosphate:phosphate,Methylenediphosphonic acid
O[P](O)(=O)C[P](O)(O)=O,1.7,0:1:2:5,phosphate:phosphate:phosphate:phosphate,Methylenediphosphonic acid
O[P](O)(=O)C[P](O)(O)=O,1.3,0:1:2:5,phosphate:phosphate:phosphate:phosphate,Methylenediphosphonic acid
CC([P](O)(O)=O)[P](O)(O)=O,11.7,2:3:4:6,phosphate:phosphate:phosphate:phosphate,"Ethane-1,1-diphosphonic acid"
CC([P](O)(O)=O)[P](O)(O)=O,11.5,2:3:4:6,phosphate:phosphate:phosphate:phosphate,"Ethane-1,1-diphosphonic acid"
CC([P](O)(O)=O)[P](O)(O)=O,9.93,2:3:4:6,phosphate:phosphate:phosphate:phosphate,"Ethane-1,1-diphosphonic acid"
CC([P](O)(O)=O)[P](O)(O)=O,12.0,2:3:4:6,phosphate:phosphate:phosphate:phosphate,"Ethane-1,1-diphosphonic acid"
CC([P](O)(O)=O)[P](O)(O)=O,7.22,2:3:4:6,phosphate:phosphate:phosphate:phosphate,"Ethane-1,1-diphosphonic acid"
CC([P](O)(O)=O)[P](O)(O)=O,7.18,2:3:4:6,phosphate:phosphate:phosphate:phosphate,"Ethane-1,1-diphosphonic acid"
CC([P](O)(O)=O)[P](O)(O)=O,6.56,2:3:4:6,phosphate:phosphate:phosphate:phosphate,"Ethane-1,1-diphosphonic acid"
CC([P](O)(O)=O)[P](O)(O)=O,7.49,2:3:4:6,phosphate:phosphate:phosphate:phosphate,"Ethane-1,1-diphosphonic acid"
CC([P](O)(O)=O)[P](O)(O)=O,2.88,2:3:4:6,phosphate:phosphate:phosphate:phosphate,"Ethane-1,1-diphosphonic acid"
CC([P](O)(O)=O)[P](O)(O)=O,2.66,2:3:4:6,phosphate:phosphate:phosphate:phosphate,"Ethane-1,1-diphosphonic acid"
CC([P](O)(O)=O)[P](O)(O)=O,2.48,2:3:4:6,phosphate:phosphate:phosphate:phosphate,"Ethane-1,1-diphosphonic acid"
CC([P](O)(O)=O)[P](O)(O)=O,3.14,2:3:4:6,phosphate:phosphate:phosphate:phosphate,"Ethane-1,1-diphosphonic acid"
CC([P](O)(O)=O)[P](O)(O)=O,1.4,2:3:4:6,phosphate:phosphate:phosphate:phosphate,"Ethane-1,1-diphosphonic acid"
CC(C)([P](O)(O)=O)[P](O)(O)=O,11.8,3:4:5,phosphate:phosphate:phosphate,"Propane-2,2-diphosphonic acid"
CC(C)([P](O)(O)=O)[P](O)(O)=O,12.4,3:4:5,phosphate:phosphate:phosphate,"Propane-2,2-diphosphonic acid"
CC(C)([P](O)(O)=O)[P](O)(O)=O,12.1,3:4:5,phosphate:phosphate:phosphate,"Propane-2,2-diphosphonic acid"
CC(C)([P](O)(O)=O)[P](O)(O)=O,7.78,3:4:5,phosphate:phosphate:phosphate,"Propane-2,2-diphosphonic acid"
CC(C)([P](O)(O)=O)[P](O)(O)=O,7.75,3:4:5,phosphate:phosphate:phosphate,"Propane-2,2-diphosphonic acid"
CC(C)([P](O)(O)=O)[P](O)(O)=O,8.04,3:4:5,phosphate:phosphate:phosphate,"Propane-2,2-diphosphonic acid"
CC(C)([P](O)(O)=O)[P](O)(O)=O,2.98,3:4:5,phosphate:phosphate:phosphate,"Propane-2,2-diphosphonic acid"
CC(C)([P](O)(O)=O)[P](O)(O)=O,2.94,3:4:5,phosphate:phosphate:phosphate,"Propane-2,2-diphosphonic acid"
CC(C)([P](O)(O)=O)[P](O)(O)=O,3.16,3:4:5,phosphate:phosphate:phosphate,"Propane-2,2-diphosphonic acid"
O[P](O)(=O)CC[P](O)(O)=O,9.08,0:1:2:6,phosphate:phosphate:phosphate:phosphate,Ethylenediphosphonic acid
O[P](O)(=O)CC[P](O)(O)=O,8.96,0:1:2:6,phosphate:phosphate:phosphate:phosphate,Ethylenediphosphonic acid
O[P](O)(=O)CC[P](O)(O)=O,9.28,0:1:2:6,phosphate:phosphate:phosphate:phosphate,Ethylenediphosphonic acid
O[P](O)(=O)CC[P](O)(O)=O,7.5,0:1:2:6,phosphate:phosphate:phosphate:phosphate,Ethylenediphosphonic acid
O[P](O)(=O)CC[P](O)(O)=O,7.42,0:1:2:6,phosphate:phosphate:phosphate:phosphate,Ethylenediphosphonic acid
O[P](O)(=O)CC[P](O)(O)=O,7.62,0:1:2:6,phosphate:phosphate:phosphate:phosphate,Ethylenediphosphonic acid
O[P](O)(=O)CC[P](O)(O)=O,2.96,0:1:2:6,phosphate:phosphate:phosphate:phosphate,Ethylenediphosphonic acid
O[P](O)(=O)CC[P](O)(O)=O,2.74,0:1:2:6,phosphate:phosphate:phosphate:phosphate,Ethylenediphosphonic acid
O[P](O)(=O)CC[P](O)(O)=O,3.18,0:1:2:6,phosphate:phosphate:phosphate:phosphate,Ethylenediphosphonic acid
O[P](O)(=O)CC[P](O)(O)=O,1.5,0:1:2:6,phosphate:phosphate:phosphate:phosphate,Ethylenediphosphonic acid
CC(C[P](O)(O)=O)[P](O)(O)=O,9.27,3:4:5,phosphate:phosphate:phosphate,"Propane-1,2-diphosphonic acid"
CC(C[P](O)(O)=O)[P](O)(O)=O,7.0,3:4:5,phosphate:phosphate:phosphate,"Propane-1,2-diphosphonic acid"
CC(C[P](O)(O)=O)[P](O)(O)=O,2.6,3:4:5,phosphate:phosphate:phosphate,"Propane-1,2-diphosphonic acid"
O[P](O)(=O)CCC[P](O)(O)=O,8.43,0:1:2:7,phosphate:phosphate:phosphate:phosphate,Trimethylenediphosphonic acid
O[P](O)(=O)CCC[P](O)(O)=O,8.35,0:1:2:7,phosphate:phosphate:phosphate:phosphate,Trimethylenediphosphonic acid
O[P](O)(=O)CCC[P](O)(O)=O,8.33,0:1:2:7,phosphate:phosphate:phosphate:phosphate,Trimethylenediphosphonic acid
O[P](O)(=O)CCC[P](O)(O)=O,8.63,0:1:2:7,phosphate:phosphate:phosphate:phosphate,Trimethylenediphosphonic acid
O[P](O)(=O)CCC[P](O)(O)=O,7.5,0:1:2:7,phosphate:phosphate:phosphate:phosphate,Trimethylenediphosphonic acid
O[P](O)(=O)CCC[P](O)(O)=O,7.34,0:1:2:7,phosphate:phosphate:phosphate:phosphate,Trimethylenediphosphonic acid
O[P](O)(=O)CCC[P](O)(O)=O,7.41,0:1:2:7,phosphate:phosphate:phosphate:phosphate,Trimethylenediphosphonic acid
O[P](O)(=O)CCC[P](O)(O)=O,7.65,0:1:2:7,phosphate:phosphate:phosphate:phosphate,Trimethylenediphosphonic acid
O[P](O)(=O)CCC[P](O)(O)=O,2.81,0:1:2:7,phosphate:phosphate:phosphate:phosphate,Trimethylenediphosphonic acid
O[P](O)(=O)CCC[P](O)(O)=O,2.6,0:1:2:7,phosphate:phosphate:phosphate:phosphate,Trimethylenediphosphonic acid
O[P](O)(=O)CCC[P](O)(O)=O,2.69,0:1:2:7,phosphate:phosphate:phosphate:phosphate,Trimethylenediphosphonic acid
O[P](O)(=O)CCC[P](O)(O)=O,3.06,0:1:2:7,phosphate:phosphate:phosphate:phosphate,Trimethylenediphosphonic acid
O[P](O)(=O)CCC[P](O)(O)=O,1.6,0:1:2:7,phosphate:phosphate:phosphate:phosphate,Trimethylenediphosphonic acid
O[P](O)(=O)CCC[P](O)(O)=O,1.7,0:1:2:7,phosphate:phosphate:phosphate:phosphate,Trimethylenediphosphonic acid
O[P](O)(=O)CCCC[P](O)(O)=O,8.38,0:1:2:8,phosphate:phosphate:phosphate:phosphate,Tetramethylenediphosphonic acid
O[P](O)(=O)CCCC[P](O)(O)=O,8.3,0:1:2:8,phosphate:phosphate:phosphate:phosphate,Tetramethylenediphosphonic acid
O[P](O)(=O)CCCC[P](O)(O)=O,8.58,0:1:2:8,phosphate:phosphate:phosphate:phosphate,Tetramethylenediphosphonic acid
O[P](O)(=O)CCCC[P](O)(O)=O,7.58,0:1:2:8,phosphate:phosphate:phosphate:phosphate,Tetramethylenediphosphonic acid
O[P](O)(=O)CCCC[P](O)(O)=O,7.54,0:1:2:8,phosphate:phosphate:phosphate:phosphate,Tetramethylenediphosphonic acid
O[P](O)(=O)CCCC[P](O)(O)=O,7.47,0:1:2:8,phosphate:phosphate:phosphate:phosphate,Tetramethylenediphosphonic acid
O[P](O)(=O)CCCC[P](O)(O)=O,7.78,0:1:2:8,phosphate:phosphate:phosphate:phosphate,Tetramethylenediphosphonic acid
O[P](O)(=O)CCCC[P](O)(O)=O,2.85,0:1:2:8,phosphate:phosphate:phosphate:phosphate,Tetramethylenediphosphonic acid
O[P](O)(=O)CCCC[P](O)(O)=O,2.7,0:1:2:8,phosphate:phosphate:phosphate:phosphate,Tetramethylenediphosphonic acid
O[P](O)(=O)CCCC[P](O)(O)=O,3.19,0:1:2:8,phosphate:phosphate:phosphate:phosphate,Tetramethylenediphosphonic acid
O[P](O)(=O)CCCC[P](O)(O)=O,1.7,0:1:2:8,phosphate:phosphate:phosphate:phosphate,Tetramethylenediphosphonic acid
O[P](O)(=O)CCCCCC[P](O)(O)=O,8.34,0:1:2:10,phosphate:phosphate:phosphate:phosphate,Hexamethylenediphosphonic acid
O[P](O)(=O)CCCCCC[P](O)(O)=O,8.27,0:1:2:10,phosphate:phosphate:phosphate:phosphate,Hexamethylenediphosphonic acid
O[P](O)(=O)CCCCCC[P](O)(O)=O,8.56,0:1:2:10,phosphate:phosphate:phosphate:phosphate,Hexamethylenediphosphonic acid
O[P](O)(=O)CCCCCC[P](O)(O)=O,7.65,0:1:2:10,phosphate:phosphate:phosphate:phosphate,Hexamethylenediphosphonic acid
O[P](O)(=O)CCCCCC[P](O)(O)=O,7.59,0:1:2:10,phosphate:phosphate:phosphate:phosphate,Hexamethylenediphosphonic acid
O[P](O)(=O)CCCCCC[P](O)(O)=O,7.73,0:1:2:10,phosphate:phosphate:phosphate:phosphate,Hexamethylenediphosphonic acid
O[P](O)(=O)CCCCCC[P](O)(O)=O,3.07,0:1:2:10,phosphate:phosphate:phosphate:phosphate,Hexamethylenediphosphonic acid
O[P](O)(=O)CCCCCC[P](O)(O)=O,3.0,0:1:2:10,phosphate:phosphate:phosphate:phosphate,Hexamethylenediphosphonic acid
O[P](O)(=O)CCCCCC[P](O)(O)=O,3.12,0:1:2:10,phosphate:phosphate:phosphate:phosphate,Hexamethylenediphosphonic acid
O[P](O)(=O)CCCCCC[P](O)(O)=O,1.8,0:1:2:10,phosphate:phosphate:phosphate:phosphate,Hexamethylenediphosphonic acid
O[P](O)(=O)CCCCCC[P](O)(O)=O,1.9,0:1:2:10,phosphate:phosphate:phosphate:phosphate,Hexamethylenediphosphonic acid
O[P](O)(=O)CCCCCCCCCC[P](O)(O)=O,8.83,0:1:2:14,phosphate:phosphate:phosphate:phosphate,Decamethylenediphosphonic acid
O[P](O)(=O)CCCCCCCCCC[P](O)(O)=O,8.73,0:1:2:14,phosphate:phosphate:phosphate:phosphate,Decamethylenediphosphonic acid
O[P](O)(=O)CCCCCCCCCC[P](O)(O)=O,8.94,0:1:2:14,phosphate:phosphate:phosphate:phosphate,Decamethylenediphosphonic acid
O[P](O)(=O)CCCCCCCCCC[P](O)(O)=O,7.74,0:1:2:14,phosphate:phosphate:phosphate:phosphate,Decamethylenediphosphonic acid
O[P](O)(=O)CCCCCCCCCC[P](O)(O)=O,7.68,0:1:2:14,phosphate:phosphate:phosphate:phosphate,Decamethylenediphosphonic acid
O[P](O)(=O)CCCCCCCCCC[P](O)(O)=O,7.93,0:1:2:14,phosphate:phosphate:phosphate:phosphate,Decamethylenediphosphonic acid
O[P](O)(=O)CCCCCCCCCC[P](O)(O)=O,3.15,0:1:2:14,phosphate:phosphate:phosphate:phosphate,Decamethylenediphosphonic acid
O[P](O)(=O)CCCCCCCCCC[P](O)(O)=O,3.06,0:1:2:14,phosphate:phosphate:phosphate:phosphate,Decamethylenediphosphonic acid
O[P](O)(=O)CCCCCCCCCC[P](O)(O)=O,3.27,0:1:2:14,phosphate:phosphate:phosphate:phosphate,Decamethylenediphosphonic acid
O[P](O)(=O)CCCCCCCCCC[P](O)(O)=O,2.1,0:1:2:14,phosphate:phosphate:phosphate:phosphate,Decamethylenediphosphonic acid
O[P](O)(=O)CCCCCCCCCC[P](O)(O)=O,2.0,0:1:2:14,phosphate:phosphate:phosphate:phosphate,Decamethylenediphosphonic acid
O[P](O)(=O)C(=C)[P](O)(O)=O,8.6,0:1:2:6,phosphate:phosphate:phosphate:phosphate,"Ethene-1,1-diphosphonic acid (Vinylidenediphosphonic acid)"
O[P](O)(=O)C(=C)[P](O)(O)=O,6.01,0:1:2:6,phosphate:phosphate:phosphate:phosphate,"Ethene-1,1-diphosphonic acid (Vinylidenediphosphonic acid)"
O[P](O)(=O)C(=C)[P](O)(O)=O,2.06,0:1:2:6,phosphate:phosphate:phosphate:phosphate,"Ethene-1,1-diphosphonic acid (Vinylidenediphosphonic acid)"
O[P](O)(=O)C(=C)[P](O)(O)=O,1.4,0:1:2:6,phosphate:phosphate:phosphate:phosphate,"Ethene-1,1-diphosphonic acid (Vinylidenediphosphonic acid)"
O[P](O)(=O)C(F)(F)[P](O)(O)=O,7.63,0:1:2:7,phosphate:phosphate:phosphate:phosphate,Difluoromethylenediphosphonic acid
O[P](O)(=O)C(F)(F)[P](O)(O)=O,8.16,0:1:2:7,phosphate:phosphate:phosphate:phosphate,Difluoromethylenediphosphonic acid
O[P](O)(=O)C(F)(F)[P](O)(O)=O,5.66,0:1:2:7,phosphate:phosphate:phosphate:phosphate,Difluoromethylenediphosphonic acid
O[P](O)(=O)C(F)(F)[P](O)(O)=O,5.78,0:1:2:7,phosphate:phosphate:phosphate:phosphate,Difluoromethylenediphosphonic acid
O[P](O)(=O)C(F)(F)[P](O)(O)=O,2.11,0:1:2:7,phosphate:phosphate:phosphate:phosphate,Difluoromethylenediphosphonic acid
O[P](O)(=O)C(F)(F)[P](O)(O)=O,2.14,0:1:2:7,phosphate:phosphate:phosphate:phosphate,Difluoromethylenediphosphonic acid
O[P](O)(=O)C(F)(F)[P](O)(O)=O,1.4,0:1:2:7,phosphate:phosphate:phosphate:phosphate,Difluoromethylenediphosphonic acid
O[P](O)(=O)C(F)(F)[P](O)(O)=O,1.5,0:1:2:7,phosphate:phosphate:phosphate:phosphate,Difluoromethylenediphosphonic acid
FO[P](=O)(CC[P](=O)(OF)OF)OF,6.3,2:3:1:12:6:7:8:10,phosphate:phosphate:phosphate:phosphate:phosphate:phosphate:phosphate:phosphate,Tetrafluoroethylenediphosphonic acid
FO[P](=O)(CC[P](=O)(OF)OF)OF,4.49,2:3:1:12:6:7:8:10,phosphate:phosphate:phosphate:phosphate:phosphate:phosphate:phosphate:phosphate,Tetrafluoroethylenediphosphonic acid
FO[P](=O)(CC[P](=O)(OF)OF)OF,2.0,2:3:1:12:6:7:8:10,phosphate:phosphate:phosphate:phosphate:phosphate:phosphate:phosphate:phosphate,Tetrafluoroethylenediphosphonic acid
FO[P](=O)(CC[P](=O)(OF)OF)OF,1.1,2:3:1:12:6:7:8:10,phosphate:phosphate:phosphate:phosphate:phosphate:phosphate:phosphate:phosphate,Tetrafluoroethylenediphosphonic acid
OC([P](O)(O)=O)[P](O)(O)=O,10.26,0:2:3,alcohol:phosphate:phosphate,Hydroxymethylenediphosphonic acid
OC([P](O)(O)=O)[P](O)(O)=O,10.56,0:2:3,alcohol:phosphate:phosphate,Hydroxymethylenediphosphonic acid
OC([P](O)(O)=O)[P](O)(O)=O,6.78,0:2:3,alcohol:phosphate:phosphate,Hydroxymethylenediphosphonic acid
OC([P](O)(O)=O)[P](O)(O)=O,7.05,0:2:3,alcohol:phosphate:phosphate,Hydroxymethylenediphosphonic acid
OC([P](O)(O)=O)[P](O)(O)=O,2.6,0:2:3,alcohol:phosphate:phosphate,Hydroxymethylenediphosphonic acid
OC([P](O)(O)=O)[P](O)(O)=O,2.74,0:2:3,alcohol:phosphate:phosphate,Hydroxymethylenediphosphonic acid
CC(O)([P](O)(O)=O)[P](O)(O)=O,9.64,2:3:4:5,alcohol:phosphate:phosphate:phosphate,"1-Hydroxyethane-1,1-diphosphonic acid (Etidronic acid)"
CC(O)([P](O)(O)=O)[P](O)(O)=O,10.8,2:3:4:5,alcohol:phosphate:phosphate:phosphate,"1-Hydroxyethane-1,1-diphosphonic acid (Etidronic acid)"
CC(O)([P](O)(O)=O)[P](O)(O)=O,11.1,2:3:4:5,alcohol:phosphate:phosphate:phosphate,"1-Hydroxyethane-1,1-diphosphonic acid (Etidronic acid)"
CC(O)([P](O)(O)=O)[P](O)(O)=O,9.12,2:3:4:5,alcohol:phosphate:phosphate:phosphate,"1-Hydroxyethane-1,1-diphosphonic acid (Etidronic acid)"
CC(O)([P](O)(O)=O)[P](O)(O)=O,11.7,2:3:4:5,alcohol:phosphate:phosphate:phosphate,"1-Hydroxyethane-1,1-diphosphonic acid (Etidronic acid)"
CC(O)([P](O)(O)=O)[P](O)(O)=O,6.69,2:3:4:5,alcohol:phosphate:phosphate:phosphate,"1-Hydroxyethane-1,1-diphosphonic acid (Etidronic acid)"
CC(O)([P](O)(O)=O)[P](O)(O)=O,6.88,2:3:4:5,alcohol:phosphate:phosphate:phosphate,"1-Hydroxyethane-1,1-diphosphonic acid (Etidronic acid)"
CC(O)([P](O)(O)=O)[P](O)(O)=O,7.0,2:3:4:5,alcohol:phosphate:phosphate:phosphate,"1-Hydroxyethane-1,1-diphosphonic acid (Etidronic acid)"
CC(O)([P](O)(O)=O)[P](O)(O)=O,6.75,2:3:4:5,alcohol:phosphate:phosphate:phosphate,"1-Hydroxyethane-1,1-diphosphonic acid (Etidronic acid)"
CC(O)([P](O)(O)=O)[P](O)(O)=O,6.2,2:3:4:5,alcohol:phosphate:phosphate:phosphate,"1-Hydroxyethane-1,1-diphosphonic acid (Etidronic acid)"
CC(O)([P](O)(O)=O)[P](O)(O)=O,7.62,2:3:4:5,alcohol:phosphate:phosphate:phosphate,"1-Hydroxyethane-1,1-diphosphonic acid (Etidronic acid)"
CC(O)([P](O)(O)=O)[P](O)(O)=O,2.5,2:3:4:5,alcohol:phosphate:phosphate:phosphate,"1-Hydroxyethane-1,1-diphosphonic acid (Etidronic acid)"
CC(O)([P](O)(O)=O)[P](O)(O)=O,2.53,2:3:4:5,alcohol:phosphate:phosphate:phosphate,"1-Hydroxyethane-1,1-diphosphonic acid (Etidronic acid)"
CC(O)([P](O)(O)=O)[P](O)(O)=O,2.79,2:3:4:5,alcohol:phosphate:phosphate:phosphate,"1-Hydroxyethane-1,1-diphosphonic acid (Etidronic acid)"
CC(O)([P](O)(O)=O)[P](O)(O)=O,2.4,2:3:4:5,alcohol:phosphate:phosphate:phosphate,"1-Hydroxyethane-1,1-diphosphonic acid (Etidronic acid)"
CC(O)([P](O)(O)=O)[P](O)(O)=O,2.33,2:3:4:5,alcohol:phosphate:phosphate:phosphate,"1-Hydroxyethane-1,1-diphosphonic acid (Etidronic acid)"
CC(O)([P](O)(O)=O)[P](O)(O)=O,2.2,2:3:4:5,alcohol:phosphate:phosphate:phosphate,"1-Hydroxyethane-1,1-diphosphonic acid (Etidronic acid)"
CC(O)([P](O)(O)=O)[P](O)(O)=O,3.12,2:3:4:5,alcohol:phosphate:phosphate:phosphate,"1-Hydroxyethane-1,1-diphosphonic acid (Etidronic acid)"
CC(O)([P](O)(O)=O)[P](O)(O)=O,1.8,2:3:4:5,alcohol:phosphate:phosphate:phosphate,"1-Hydroxyethane-1,1-diphosphonic acid (Etidronic acid)"
CC(O)([P](O)(O)=O)[P](O)(O)=O,1.4,2:3:4:5,alcohol:phosphate:phosphate:phosphate,"1-Hydroxyethane-1,1-diphosphonic acid (Etidronic acid)"
CC(O)([P](O)(O)=O)[P](O)(O)=O,1.2,2:3:4:5,alcohol:phosphate:phosphate:phosphate,"1-Hydroxyethane-1,1-diphosphonic acid (Etidronic acid)"
CC(O)([P](O)(O)=O)[P](O)(O)=O,1.6,2:3:4:5,alcohol:phosphate:phosphate:phosphate,"1-Hydroxyethane-1,1-diphosphonic acid (Etidronic acid)"
CC(O)([P](O)(O)=O)[P](O)(O)=O,2.0,2:3:4:5,alcohol:phosphate:phosphate:phosphate,"1-Hydroxyethane-1,1-diphosphonic acid (Etidronic acid)"
OCC(O)([P](O)(O)=O)[P](O)(O)=O,7.8,0:3:4:5,alcohol:alcohol:phosphate:phosphate,"1,2-Dihydroxyethane-1,1-diphosphonic acid"
OCC(O)([P](O)(O)=O)[P](O)(O)=O,5.76,0:3:4:5,alcohol:alcohol:phosphate:phosphate,"1,2-Dihydroxyethane-1,1-diphosphonic acid"
OCC(O)([P](O)(O)=O)[P](O)(O)=O,1.7,0:3:4:5,alcohol:alcohol:phosphate:phosphate,"1,2-Dihydroxyethane-1,1-diphosphonic acid"
OCC(O)([P](O)(O)=O)[P](O)(O)=O,1.0,0:3:4:5,alcohol:alcohol:phosphate:phosphate,"1,2-Dihydroxyethane-1,1-diphosphonic acid"
O[P](O)(=O)C(=O)[P](O)(O)=O,8.16,0:1,phosphate:phosphate,Oxomethanediphosphonic acid
O[P](O)(=O)C(=O)[P](O)(O)=O,8.42,0:1,phosphate:phosphate,Oxomethanediphosphonic acid
O[P](O)(=O)C(=O)[P](O)(O)=O,5.38,0:1,phosphate:phosphate,Oxomethanediphosphonic acid
O[P](O)(=O)C(=O)[P](O)(O)=O,5.5,0:1,phosphate:phosphate,Oxomethanediphosphonic acid
O[P](O)(=O)C1(CCC(=O)N1)[P](O)(O)=O,10.69,9:0:1,amine_secondary:phosphate:phosphate,"2-Oxoazolidine-5,5-diphosphonic acid (Pyrrolidone-5,5-diphosphonic acid)"
O[P](O)(=O)C1(CCC(=O)N1)[P](O)(O)=O,6.75,9:0:1,amine_secondary:phosphate:phosphate,"2-Oxoazolidine-5,5-diphosphonic acid (Pyrrolidone-5,5-diphosphonic acid)"
O[P](O)(=O)C1(CCC(=O)N1)[P](O)(O)=O,2.25,9:0:1,amine_secondary:phosphate:phosphate,"2-Oxoazolidine-5,5-diphosphonic acid (Pyrrolidone-5,5-diphosphonic acid)"
CO[P](O)(O)=O,6.25,2,phosphate,Phosphoric acid methyl ester (Methyl phosphate)
CCCCO[P](O)(O)=O,6.72,5,phosphate,Phosphoric acid butyl ester (Butyl phosphate)