SMILES,pKa,Dissociable_Atoms,Functional_Group,Name,Dissociable_Atoms_Ordered,Functional_Group_Ordered,Dissociation_Order
CNC(=O)[C@H](Cc1c[nH]cn1)NC(=O)[C@H](C)NC(=O)[C@@H](N)CC(O)=O,7.7,23:20:1,carboxylic_acid:amine_primary:amine_secondary,L-Aspartyl-L-alanyl-L-histidine methylamide,23:20:1,carboxylic_acid:amine_primary:amine_secondary,23(carboxylic_acid) > 20(amine_primary) > 1(amine_secondary)
CNC(=O)[C@H](Cc1c[nH]cn1)NC(=O)[C@H](C)NC(=O)[C@@H](N)CC(O)=O,6.38,23:20:1,carboxylic_acid:amine_primary:amine_secondary,L-Aspartyl-L-alanyl-L-histidine methylamide,23:20:1,carboxylic_acid:amine_primary:amine_secondary,23(carboxylic_acid) > 20(amine_primary) > 1(amine_secondary)
CNC(=O)[C@H](Cc1c[nH]cn1)NC(=O)[C@H](C)NC(=O)[C@@H](N)CC(O)=O,3.0,23:20:1,carboxylic_acid:amine_primary:amine_secondary,L-Aspartyl-L-alanyl-L-histidine methylamide,23:20:1,carboxylic_acid:amine_primary:amine_secondary,23(carboxylic_acid) > 20(amine_primary) > 1(amine_secondary)
CC[C@H](C)[C@H](NC(=O)[C@H](Cc1ccc(O)cc1)NC(C)=O)C(=O)N[C@@H](Cc2c[nH]cn2)C(O)=O,9.78,32:5:17,carboxylic_acid:amine_secondary:amine_secondary,N-Acetyl-L-tyrosyl-L-isoleucyl-L-histidine,32:5:17,carboxylic_acid:amine_secondary:amine_secondary,32(carboxylic_acid) > 5(amine_secondary) > 17(amine_secondary)
CC[C@H](C)[C@H](NC(=O)[C@H](Cc1ccc(O)cc1)NC(C)=O)C(=O)N[C@@H](Cc2c[nH]cn2)C(O)=O,7.02,32:5:17,carboxylic_acid:amine_secondary:amine_secondary,N-Acetyl-L-tyrosyl-L-isoleucyl-L-histidine,32:5:17,carboxylic_acid:amine_secondary:amine_secondary,32(carboxylic_acid) > 5(amine_secondary) > 17(amine_secondary)
CC[C@H](C)[C@H](NC(=O)[C@H](Cc1ccc(O)cc1)NC(C)=O)C(=O)N[C@@H](Cc2c[nH]cn2)C(O)=O,2.95,32:5:17,carboxylic_acid:amine_secondary:amine_secondary,N-Acetyl-L-tyrosyl-L-isoleucyl-L-histidine,32:5:17,carboxylic_acid:amine_secondary:amine_secondary,32(carboxylic_acid) > 5(amine_secondary) > 17(amine_secondary)
C[C@H](N)C(=O)N[C@@H](CCCCN)C(=O)N[C@@H](C)C(O)=O,10.19,18:2:11,carboxylic_acid:amine_primary:amine_primary,L-Alanyl-L-lysyl-L-alanine,18:2:11,carboxylic_acid:amine_primary:amine_primary,18(carboxylic_acid) > 2(amine_primary) > 11(amine_primary)
C[C@H](N)C(=O)N[C@@H](CCCCN)C(=O)N[C@@H](C)C(O)=O,7.54,18:2:11,carboxylic_acid:amine_primary:amine_primary,L-Alanyl-L-lysyl-L-alanine,18:2:11,carboxylic_acid:amine_primary:amine_primary,18(carboxylic_acid) > 2(amine_primary) > 11(amine_primary)
C[C@H](N)C(=O)N[C@@H](CCCCN)C(=O)N[C@@H](C)C(O)=O,3.04,18:2:11,carboxylic_acid:amine_primary:amine_primary,L-Alanyl-L-lysyl-L-alanine,18:2:11,carboxylic_acid:amine_primary:amine_primary,18(carboxylic_acid) > 2(amine_primary) > 11(amine_primary)
C[C@H](N)C(=O)N[C@H](CCCCN)C(=O)N[C@@H](C)C(O)=O,10.25,18:2:11,carboxylic_acid:amine_primary:amine_primary,L-Alanyl-D-lysyl-L-alanine,18:2:11,carboxylic_acid:amine_primary:amine_primary,18(carboxylic_acid) > 2(amine_primary) > 11(amine_primary)
C[C@H](N)C(=O)N[C@H](CCCCN)C(=O)N[C@@H](C)C(O)=O,7.86,18:2:11,carboxylic_acid:amine_primary:amine_primary,L-Alanyl-D-lysyl-L-alanine,18:2:11,carboxylic_acid:amine_primary:amine_primary,18(carboxylic_acid) > 2(amine_primary) > 11(amine_primary)
C[C@H](N)C(=O)N[C@H](CCCCN)C(=O)N[C@@H](C)C(O)=O,3.19,18:2:11,carboxylic_acid:amine_primary:amine_primary,L-Alanyl-D-lysyl-L-alanine,18:2:11,carboxylic_acid:amine_primary:amine_primary,18(carboxylic_acid) > 2(amine_primary) > 11(amine_primary)
C[C@H](N)C(=O)N[C@@H](CCCCN)C(=O)N[C@H](C)C(O)=O,10.38,18:2:11,carboxylic_acid:amine_primary:amine_primary,L-Alanyl-L-lysyl-D-alanine,18:2:11,carboxylic_acid:amine_primary:amine_primary,18(carboxylic_acid) > 2(amine_primary) > 11(amine_primary)
C[C@H](N)C(=O)N[C@@H](CCCCN)C(=O)N[C@H](C)C(O)=O,7.73,18:2:11,carboxylic_acid:amine_primary:amine_primary,L-Alanyl-L-lysyl-D-alanine,18:2:11,carboxylic_acid:amine_primary:amine_primary,18(carboxylic_acid) > 2(amine_primary) > 11(amine_primary)
C[C@H](N)C(=O)N[C@@H](CCCCN)C(=O)N[C@H](C)C(O)=O,3.18,18:2:11,carboxylic_acid:amine_primary:amine_primary,L-Alanyl-L-lysyl-D-alanine,18:2:11,carboxylic_acid:amine_primary:amine_primary,18(carboxylic_acid) > 2(amine_primary) > 11(amine_primary)
NCCCC[C@H](NC(=O)[C@@H](N)CCCNC(N)=N)C(=O)N[C@@H](CC(O)=O)C(O)=O,10.49,24:27:0:10,carboxylic_acid:carboxylic_acid:amine_primary:amine_primary,L-Arginyl-L-lysyl-L-aspartic acid,24:27:0:10,carboxylic_acid:carboxylic_acid:amine_primary:amine_primary,24(carboxylic_acid) > 27(carboxylic_acid) > 0(amine_primary) > 10(amine_primary)
NCCCC[C@H](NC(=O)[C@@H](N)CCCNC(N)=N)C(=O)N[C@@H](CC(O)=O)C(O)=O,7.44,24:27:0:10,carboxylic_acid:carboxylic_acid:amine_primary:amine_primary,L-Arginyl-L-lysyl-L-aspartic acid,24:27:0:10,carboxylic_acid:carboxylic_acid:amine_primary:amine_primary,24(carboxylic_acid) > 27(carboxylic_acid) > 0(amine_primary) > 10(amine_primary)
NCCCC[C@H](NC(=O)[C@@H](N)CCCNC(N)=N)C(=O)N[C@@H](CC(O)=O)C(O)=O,4.2,24:27:0:10,carboxylic_acid:carboxylic_acid:amine_primary:amine_primary,L-Arginyl-L-lysyl-L-aspartic acid,24:27:0:10,carboxylic_acid:carboxylic_acid:amine_primary:amine_primary,24(carboxylic_acid) > 27(carboxylic_acid) > 0(amine_primary) > 10(amine_primary)
NCCCC[C@H](NC(=O)[C@@H](N)CCCNC(N)=N)C(=O)N[C@@H](CC(O)=O)C(O)=O,2.77,24:27:0:10,carboxylic_acid:carboxylic_acid:amine_primary:amine_primary,L-Arginyl-L-lysyl-L-aspartic acid,24:27:0:10,carboxylic_acid:carboxylic_acid:amine_primary:amine_primary,24(carboxylic_acid) > 27(carboxylic_acid) > 0(amine_primary) > 10(amine_primary)
NCCCC[C@H](NC(=O)[C@H](N)CCCNC(N)=N)C(=O)N[C@@H](CC(O)=O)C(O)=O,10.29,24:27:0:10,carboxylic_acid:carboxylic_acid:amine_primary:amine_primary,D-Arginyl-L-lysyl-L-aspartic acid,24:27:0:10,carboxylic_acid:carboxylic_acid:amine_primary:amine_primary,24(carboxylic_acid) > 27(carboxylic_acid) > 0(amine_primary) > 10(amine_primary)
NCCCC[C@H](NC(=O)[C@H](N)CCCNC(N)=N)C(=O)N[C@@H](CC(O)=O)C(O)=O,7.5,24:27:0:10,carboxylic_acid:carboxylic_acid:amine_primary:amine_primary,D-Arginyl-L-lysyl-L-aspartic acid,24:27:0:10,carboxylic_acid:carboxylic_acid:amine_primary:amine_primary,24(carboxylic_acid) > 27(carboxylic_acid) > 0(amine_primary) > 10(amine_primary)
NCCCC[C@H](NC(=O)[C@H](N)CCCNC(N)=N)C(=O)N[C@@H](CC(O)=O)C(O)=O,4.2,24:27:0:10,carboxylic_acid:carboxylic_acid:amine_primary:amine_primary,D-Arginyl-L-lysyl-L-aspartic acid,24:27:0:10,carboxylic_acid:carboxylic_acid:amine_primary:amine_primary,24(carboxylic_acid) > 27(carboxylic_acid) > 0(amine_primary) > 10(amine_primary)
NCCCC[C@H](NC(=O)[C@H](N)CCCNC(N)=N)C(=O)N[C@@H](CC(O)=O)C(O)=O,2.76,24:27:0:10,carboxylic_acid:carboxylic_acid:amine_primary:amine_primary,D-Arginyl-L-lysyl-L-aspartic acid,24:27:0:10,carboxylic_acid:carboxylic_acid:amine_primary:amine_primary,24(carboxylic_acid) > 27(carboxylic_acid) > 0(amine_primary) > 10(amine_primary)
NCCCC[C@@H](NC(=O)[C@@H](N)CCCNC(N)=N)C(=O)N[C@@H](CC(O)=O)C(O)=O,10.45,24:27:0:10,carboxylic_acid:carboxylic_acid:amine_primary:amine_primary,L-Arginyl-D-lysyl-L-aspartic acid,24:27:0:10,carboxylic_acid:carboxylic_acid:amine_primary:amine_primary,24(carboxylic_acid) > 27(carboxylic_acid) > 0(amine_primary) > 10(amine_primary)
NCCCC[C@@H](NC(=O)[C@@H](N)CCCNC(N)=N)C(=O)N[C@@H](CC(O)=O)C(O)=O,7.39,24:27:0:10,carboxylic_acid:carboxylic_acid:amine_primary:amine_primary,L-Arginyl-D-lysyl-L-aspartic acid,24:27:0:10,carboxylic_acid:carboxylic_acid:amine_primary:amine_primary,24(carboxylic_acid) > 27(carboxylic_acid) > 0(amine_primary) > 10(amine_primary)
NCCCC[C@@H](NC(=O)[C@@H](N)CCCNC(N)=N)C(=O)N[C@@H](CC(O)=O)C(O)=O,4.07,24:27:0:10,carboxylic_acid:carboxylic_acid:amine_primary:amine_primary,L-Arginyl-D-lysyl-L-aspartic acid,24:27:0:10,carboxylic_acid:carboxylic_acid:amine_primary:amine_primary,24(carboxylic_acid) > 27(carboxylic_acid) > 0(amine_primary) > 10(amine_primary)
NCCCC[C@@H](NC(=O)[C@@H](N)CCCNC(N)=N)C(=O)N[C@@H](CC(O)=O)C(O)=O,2.78,24:27:0:10,carboxylic_acid:carboxylic_acid:amine_primary:amine_primary,L-Arginyl-D-lysyl-L-aspartic acid,24:27:0:10,carboxylic_acid:carboxylic_acid:amine_primary:amine_primary,24(carboxylic_acid) > 27(carboxylic_acid) > 0(amine_primary) > 10(amine_primary)
NCCCC[C@H](NC(=O)[C@@H](N)CCCNC(N)=N)C(=O)N[C@H](CC(O)=O)C(O)=O,10.55,24:27:0:10,carboxylic_acid:carboxylic_acid:amine_primary:amine_primary,L-Arginyl-L-lysyl-D-aspartic acid,24:27:0:10,carboxylic_acid:carboxylic_acid:amine_primary:amine_primary,24(carboxylic_acid) > 27(carboxylic_acid) > 0(amine_primary) > 10(amine_primary)
NCCCC[C@H](NC(=O)[C@@H](N)CCCNC(N)=N)C(=O)N[C@H](CC(O)=O)C(O)=O,7.42,24:27:0:10,carboxylic_acid:carboxylic_acid:amine_primary:amine_primary,L-Arginyl-L-lysyl-D-aspartic acid,24:27:0:10,carboxylic_acid:carboxylic_acid:amine_primary:amine_primary,24(carboxylic_acid) > 27(carboxylic_acid) > 0(amine_primary) > 10(amine_primary)
NCCCC[C@H](NC(=O)[C@@H](N)CCCNC(N)=N)C(=O)N[C@H](CC(O)=O)C(O)=O,4.12,24:27:0:10,carboxylic_acid:carboxylic_acid:amine_primary:amine_primary,L-Arginyl-L-lysyl-D-aspartic acid,24:27:0:10,carboxylic_acid:carboxylic_acid:amine_primary:amine_primary,24(carboxylic_acid) > 27(carboxylic_acid) > 0(amine_primary) > 10(amine_primary)
NCCCC[C@H](NC(=O)[C@@H](N)CCCNC(N)=N)C(=O)N[C@H](CC(O)=O)C(O)=O,2.71,24:27:0:10,carboxylic_acid:carboxylic_acid:amine_primary:amine_primary,L-Arginyl-L-lysyl-D-aspartic acid,24:27:0:10,carboxylic_acid:carboxylic_acid:amine_primary:amine_primary,24(carboxylic_acid) > 27(carboxylic_acid) > 0(amine_primary) > 10(amine_primary)
NCCCC[C@H](N)C(=O)N[C@@H](CCCCN)C(=O)N[C@@H](CCCCN)C(O)=O,11.21,26:0:6:15:24,carboxylic_acid:amine_primary:amine_primary:amine_primary:amine_primary,L-Lysyl-L-lysyl-L-lysine,26:0:6:15:24,carboxylic_acid:amine_primary:amine_primary:amine_primary:amine_primary,26(carboxylic_acid) > 0(amine_primary) > 6(amine_primary) > 15(amine_primary) > 24(amine_primary)
NCCCC[C@H](N)C(=O)N[C@@H](CCCCN)C(=O)N[C@@H](CCCCN)C(O)=O,10.43,26:0:6:15:24,carboxylic_acid:amine_primary:amine_primary:amine_primary:amine_primary,L-Lysyl-L-lysyl-L-lysine,26:0:6:15:24,carboxylic_acid:amine_primary:amine_primary:amine_primary:amine_primary,26(carboxylic_acid) > 0(amine_primary) > 6(amine_primary) > 15(amine_primary) > 24(amine_primary)
NCCCC[C@H](N)C(=O)N[C@@H](CCCCN)C(=O)N[C@@H](CCCCN)C(O)=O,9.69,26:0:6:15:24,carboxylic_acid:amine_primary:amine_primary:amine_primary:amine_primary,L-Lysyl-L-lysyl-L-lysine,26:0:6:15:24,carboxylic_acid:amine_primary:amine_primary:amine_primary:amine_primary,26(carboxylic_acid) > 0(amine_primary) > 6(amine_primary) > 15(amine_primary) > 24(amine_primary)
NCCCC[C@H](N)C(=O)N[C@@H](CCCCN)C(=O)N[C@@H](CCCCN)C(O)=O,7.23,26:0:6:15:24,carboxylic_acid:amine_primary:amine_primary:amine_primary:amine_primary,L-Lysyl-L-lysyl-L-lysine,26:0:6:15:24,carboxylic_acid:amine_primary:amine_primary:amine_primary:amine_primary,26(carboxylic_acid) > 0(amine_primary) > 6(amine_primary) > 15(amine_primary) > 24(amine_primary)
NCCCC[C@H](N)C(=O)N[C@@H](CCCCN)C(=O)N[C@@H](CCCCN)C(O)=O,2.97,26:0:6:15:24,carboxylic_acid:amine_primary:amine_primary:amine_primary:amine_primary,L-Lysyl-L-lysyl-L-lysine,26:0:6:15:24,carboxylic_acid:amine_primary:amine_primary:amine_primary:amine_primary,26(carboxylic_acid) > 0(amine_primary) > 6(amine_primary) > 15(amine_primary) > 24(amine_primary)
NCCCC[C@H](N)C(=O)N[C@H](CCCCN)C(=O)N[C@@H](CCCCN)C(O)=O,11.31,26:0:6:15:24,carboxylic_acid:amine_primary:amine_primary:amine_primary:amine_primary,L-Lysyl-D-lysyl-L-lysine,26:0:6:15:24,carboxylic_acid:amine_primary:amine_primary:amine_primary:amine_primary,26(carboxylic_acid) > 0(amine_primary) > 6(amine_primary) > 15(amine_primary) > 24(amine_primary)
NCCCC[C@H](N)C(=O)N[C@H](CCCCN)C(=O)N[C@@H](CCCCN)C(O)=O,10.43,26:0:6:15:24,carboxylic_acid:amine_primary:amine_primary:amine_primary:amine_primary,L-Lysyl-D-lysyl-L-lysine,26:0:6:15:24,carboxylic_acid:amine_primary:amine_primary:amine_primary:amine_primary,26(carboxylic_acid) > 0(amine_primary) > 6(amine_primary) > 15(amine_primary) > 24(amine_primary)
NCCCC[C@H](N)C(=O)N[C@H](CCCCN)C(=O)N[C@@H](CCCCN)C(O)=O,9.68,26:0:6:15:24,carboxylic_acid:amine_primary:amine_primary:amine_primary:amine_primary,L-Lysyl-D-lysyl-L-lysine,26:0:6:15:24,carboxylic_acid:amine_primary:amine_primary:amine_primary:amine_primary,26(carboxylic_acid) > 0(amine_primary) > 6(amine_primary) > 15(amine_primary) > 24(amine_primary)
NCCCC[C@H](N)C(=O)N[C@H](CCCCN)C(=O)N[C@@H](CCCCN)C(O)=O,7.18,26:0:6:15:24,carboxylic_acid:amine_primary:amine_primary:amine_primary:amine_primary,L-Lysyl-D-lysyl-L-lysine,26:0:6:15:24,carboxylic_acid:amine_primary:amine_primary:amine_primary:amine_primary,26(carboxylic_acid) > 0(amine_primary) > 6(amine_primary) > 15(amine_primary) > 24(amine_primary)
NCCCC[C@H](N)C(=O)N[C@H](CCCCN)C(=O)N[C@@H](CCCCN)C(O)=O,2.8,26:0:6:15:24,carboxylic_acid:amine_primary:amine_primary:amine_primary:amine_primary,L-Lysyl-D-lysyl-L-lysine,26:0:6:15:24,carboxylic_acid:amine_primary:amine_primary:amine_primary:amine_primary,26(carboxylic_acid) > 0(amine_primary) > 6(amine_primary) > 15(amine_primary) > 24(amine_primary)
NCCCC[C@H](N)C(=O)N[C@H](CCCCN)C(=O)N[C@H](CCCCN)C(O)=O,10.98,26:0:6:15:24,carboxylic_acid:amine_primary:amine_primary:amine_primary:amine_primary,L-Lysyl-D-lysyl-D-lysine,26:0:6:15:24,carboxylic_acid:amine_primary:amine_primary:amine_primary:amine_primary,26(carboxylic_acid) > 0(amine_primary) > 6(amine_primary) > 15(amine_primary) > 24(amine_primary)
NCCCC[C@H](N)C(=O)N[C@H](CCCCN)C(=O)N[C@H](CCCCN)C(O)=O,10.27,26:0:6:15:24,carboxylic_acid:amine_primary:amine_primary:amine_primary:amine_primary,L-Lysyl-D-lysyl-D-lysine,26:0:6:15:24,carboxylic_acid:amine_primary:amine_primary:amine_primary:amine_primary,26(carboxylic_acid) > 0(amine_primary) > 6(amine_primary) > 15(amine_primary) > 24(amine_primary)
NCCCC[C@H](N)C(=O)N[C@H](CCCCN)C(=O)N[C@H](CCCCN)C(O)=O,9.49,26:0:6:15:24,carboxylic_acid:amine_primary:amine_primary:amine_primary:amine_primary,L-Lysyl-D-lysyl-D-lysine,26:0:6:15:24,carboxylic_acid:amine_primary:amine_primary:amine_primary:amine_primary,26(carboxylic_acid) > 0(amine_primary) > 6(amine_primary) > 15(amine_primary) > 24(amine_primary)
NCCCC[C@H](N)C(=O)N[C@H](CCCCN)C(=O)N[C@H](CCCCN)C(O)=O,7.03,26:0:6:15:24,carboxylic_acid:amine_primary:amine_primary:amine_primary:amine_primary,L-Lysyl-D-lysyl-D-lysine,26:0:6:15:24,carboxylic_acid:amine_primary:amine_primary:amine_primary:amine_primary,26(carboxylic_acid) > 0(amine_primary) > 6(amine_primary) > 15(amine_primary) > 24(amine_primary)
NCCCC[C@H](N)C(=O)N[C@H](CCCCN)C(=O)N[C@H](CCCCN)C(O)=O,2.83,26:0:6:15:24,carboxylic_acid:amine_primary:amine_primary:amine_primary:amine_primary,L-Lysyl-D-lysyl-D-lysine,26:0:6:15:24,carboxylic_acid:amine_primary:amine_primary:amine_primary:amine_primary,26(carboxylic_acid) > 0(amine_primary) > 6(amine_primary) > 15(amine_primary) > 24(amine_primary)
N[C@@H](CCC(=O)N[C@@H](CS)C(=O)NCC(O)=O)C(O)=O,9.51,15:18:0:6,carboxylic_acid:carboxylic_acid:amine_primary:amine_secondary,L-5-Glutamyl-L-cysteinylglycine (Glutathione),15:18:0:6,carboxylic_acid:carboxylic_acid:amine_primary:amine_secondary,15(carboxylic_acid) > 18(carboxylic_acid) > 0(amine_primary) > 6(amine_secondary)
N[C@@H](CCC(=O)N[C@@H](CS)C(=O)NCC(O)=O)C(O)=O,9.27,15:18:0:6,carboxylic_acid:carboxylic_acid:amine_primary:amine_secondary,L-5-Glutamyl-L-cysteinylglycine (Glutathione),15:18:0:6,carboxylic_acid:carboxylic_acid:amine_primary:amine_secondary,15(carboxylic_acid) > 18(carboxylic_acid) > 0(amine_primary) > 6(amine_secondary)
N[C@@H](CCC(=O)N[C@@H](CS)C(=O)NCC(O)=O)C(O)=O,9.37,15:18:0:6,carboxylic_acid:carboxylic_acid:amine_primary:amine_secondary,L-5-Glutamyl-L-cysteinylglycine (Glutathione),15:18:0:6,carboxylic_acid:carboxylic_acid:amine_primary:amine_secondary,15(carboxylic_acid) > 18(carboxylic_acid) > 0(amine_primary) > 6(amine_secondary)
N[C@@H](CCC(=O)N[C@@H](CS)C(=O)NCC(O)=O)C(O)=O,9.88,15:18:0:6,carboxylic_acid:carboxylic_acid:amine_primary:amine_secondary,L-5-Glutamyl-L-cysteinylglycine (Glutathione),15:18:0:6,carboxylic_acid:carboxylic_acid:amine_primary:amine_secondary,15(carboxylic_acid) > 18(carboxylic_acid) > 0(amine_primary) > 6(amine_secondary)
N[C@@H](CCC(=O)N[C@@H](CS)C(=O)NCC(O)=O)C(O)=O,8.64,15:18:0:6,carboxylic_acid:carboxylic_acid:amine_primary:amine_secondary,L-5-Glutamyl-L-cysteinylglycine (Glutathione),15:18:0:6,carboxylic_acid:carboxylic_acid:amine_primary:amine_secondary,15(carboxylic_acid) > 18(carboxylic_acid) > 0(amine_primary) > 6(amine_secondary)
N[C@@H](CCC(=O)N[C@@H](CS)C(=O)NCC(O)=O)C(O)=O,8.39,15:18:0:6,carboxylic_acid:carboxylic_acid:amine_primary:amine_secondary,L-5-Glutamyl-L-cysteinylglycine (Glutathione),15:18:0:6,carboxylic_acid:carboxylic_acid:amine_primary:amine_secondary,15(carboxylic_acid) > 18(carboxylic_acid) > 0(amine_primary) > 6(amine_secondary)
N[C@@H](CCC(=O)N[C@@H](CS)C(=O)NCC(O)=O)C(O)=O,8.58,15:18:0:6,carboxylic_acid:carboxylic_acid:amine_primary:amine_secondary,L-5-Glutamyl-L-cysteinylglycine (Glutathione),15:18:0:6,carboxylic_acid:carboxylic_acid:amine_primary:amine_secondary,15(carboxylic_acid) > 18(carboxylic_acid) > 0(amine_primary) > 6(amine_secondary)
N[C@@H](CCC(=O)N[C@@H](CS)C(=O)NCC(O)=O)C(O)=O,9.16,15:18:0:6,carboxylic_acid:carboxylic_acid:amine_primary:amine_secondary,L-5-Glutamyl-L-cysteinylglycine (Glutathione),15:18:0:6,carboxylic_acid:carboxylic_acid:amine_primary:amine_secondary,15(carboxylic_acid) > 18(carboxylic_acid) > 0(amine_primary) > 6(amine_secondary)
N[C@@H](CCC(=O)N[C@@H](CS)C(=O)NCC(O)=O)C(O)=O,3.49,15:18:0:6,carboxylic_acid:carboxylic_acid:amine_primary:amine_secondary,L-5-Glutamyl-L-cysteinylglycine (Glutathione),15:18:0:6,carboxylic_acid:carboxylic_acid:amine_primary:amine_secondary,15(carboxylic_acid) > 18(carboxylic_acid) > 0(amine_primary) > 6(amine_secondary)
N[C@@H](CCC(=O)N[C@@H](CS)C(=O)NCC(O)=O)C(O)=O,3.46,15:18:0:6,carboxylic_acid:carboxylic_acid:amine_primary:amine_secondary,L-5-Glutamyl-L-cysteinylglycine (Glutathione),15:18:0:6,carboxylic_acid:carboxylic_acid:amine_primary:amine_secondary,15(carboxylic_acid) > 18(carboxylic_acid) > 0(amine_primary) > 6(amine_secondary)
N[C@@H](CCC(=O)N[C@@H](CS)C(=O)NCC(O)=O)C(O)=O,3.48,15:18:0:6,carboxylic_acid:carboxylic_acid:amine_primary:amine_secondary,L-5-Glutamyl-L-cysteinylglycine (Glutathione),15:18:0:6,carboxylic_acid:carboxylic_acid:amine_primary:amine_secondary,15(carboxylic_acid) > 18(carboxylic_acid) > 0(amine_primary) > 6(amine_secondary)
N[C@@H](CCC(=O)N[C@@H](CS)C(=O)NCC(O)=O)C(O)=O,3.5,15:18:0:6,carboxylic_acid:carboxylic_acid:amine_primary:amine_secondary,L-5-Glutamyl-L-cysteinylglycine (Glutathione),15:18:0:6,carboxylic_acid:carboxylic_acid:amine_primary:amine_secondary,15(carboxylic_acid) > 18(carboxylic_acid) > 0(amine_primary) > 6(amine_secondary)
N[C@@H](CCC(=O)N[C@@H](CS)C(=O)NCC(O)=O)C(O)=O,3.82,15:18:0:6,carboxylic_acid:carboxylic_acid:amine_primary:amine_secondary,L-5-Glutamyl-L-cysteinylglycine (Glutathione),15:18:0:6,carboxylic_acid:carboxylic_acid:amine_primary:amine_secondary,15(carboxylic_acid) > 18(carboxylic_acid) > 0(amine_primary) > 6(amine_secondary)
N[C@@H](CCC(=O)N[C@@H](CS)C(=O)NCC(O)=O)C(O)=O,2.08,15:18:0:6,carboxylic_acid:carboxylic_acid:amine_primary:amine_secondary,L-5-Glutamyl-L-cysteinylglycine (Glutathione),15:18:0:6,carboxylic_acid:carboxylic_acid:amine_primary:amine_secondary,15(carboxylic_acid) > 18(carboxylic_acid) > 0(amine_primary) > 6(amine_secondary)
N[C@@H](CCC(=O)N[C@@H](CS)C(=O)NCC(O)=O)C(O)=O,2.06,15:18:0:6,carboxylic_acid:carboxylic_acid:amine_primary:amine_secondary,L-5-Glutamyl-L-cysteinylglycine (Glutathione),15:18:0:6,carboxylic_acid:carboxylic_acid:amine_primary:amine_secondary,15(carboxylic_acid) > 18(carboxylic_acid) > 0(amine_primary) > 6(amine_secondary)
N[C@@H](CCC(=O)N[C@@H](CS)C(=O)NCC(O)=O)C(O)=O,2.1,15:18:0:6,carboxylic_acid:carboxylic_acid:amine_primary:amine_secondary,L-5-Glutamyl-L-cysteinylglycine (Glutathione),15:18:0:6,carboxylic_acid:carboxylic_acid:amine_primary:amine_secondary,15(carboxylic_acid) > 18(carboxylic_acid) > 0(amine_primary) > 6(amine_secondary)