SMILES,pKa,Dissociable_Atoms,Functional_Group,Name
Nc1ccccc1N,4.72,7:0,aniline:aniline,"1,2-Diaminobenzene (o-Phenylenediamine)"
Nc1ccccc1N,0.6,7:0,aniline:aniline,"1,2-Diaminobenzene (o-Phenylenediamine)"
Nc1cccc(N)c1,4.89,0:6,aniline:aniline,"1,3-Diaminobenzene (m-Phenylenediamine)"
Nc1cccc(N)c1,5.11,0:6,aniline:aniline,"1,3-Diaminobenzene (m-Phenylenediamine)"
Nc1cccc(N)c1,2.4,0:6,aniline:aniline,"1,3-Diaminobenzene (m-Phenylenediamine)"
Nc1cccc(N)c1,2.5,0:6,aniline:aniline,"1,3-Diaminobenzene (m-Phenylenediamine)"
Nc1ccc(N)cc1,6.06,0:5,aniline:aniline,"1,4-Diaminobenzene (p-Phenylenediamine)"
Nc1ccc(N)cc1,6.31,0:5,aniline:aniline,"1,4-Diaminobenzene (p-Phenylenediamine)"
Nc1ccc(N)cc1,2.87,0:5,aniline:aniline,"1,4-Diaminobenzene (p-Phenylenediamine)"
Nc1ccc(N)cc1,2.97,0:5,aniline:aniline,"1,4-Diaminobenzene (p-Phenylenediamine)"
Cc1ccc(N)c(N)c1,4.79,5,aniline,"1,2-Diamino-4-methylbenzene (4-Methyl-o-phenylenediamine)"
Cc1ccc(N)c(N)c1,4.97,5,aniline,"1,2-Diamino-4-methylbenzene (4-Methyl-o-phenylenediamine)"
COc1ccc(N)c(N)c1,5.1,6,aniline,"1,2-Diamino-4-methoxybenzene (4-Methoxy-o-phenylenediamine)"
CNc1ccccc1,4.988,1,amine_secondary,N-Methylaminobenzene (N-Methylaniline)
CNc1ccccc1,4.832,1,amine_secondary,N-Methylaminobenzene (N-Methylaniline)
CNc1ccccc1,4.692,1,amine_secondary,N-Methylaminobenzene (N-Methylaniline)
CCNc1ccccc1,5.418,2,amine_secondary,N-Ethylaminobenzene (N-Ethylaniline)
CCNc1ccccc1,5.252,2,amine_secondary,N-Ethylaminobenzene (N-Ethylaniline)
CCNc1ccccc1,5.095,2,amine_secondary,N-Ethylaminobenzene (N-Ethylaniline)
CCCNc1ccccc1,5.281,3,amine_secondary,N-Propylaminobenzene (N-Propylaniline)
CCCNc1ccccc1,5.101,3,amine_secondary,N-Propylaminobenzene (N-Propylaniline)
CCCNc1ccccc1,4.928,3,amine_secondary,N-Propylaminobenzene (N-Propylaniline)
CC(C)Nc1ccccc1,5.848,3,amine_secondary,N-2-Propylaminobenzene (N-Isopropylaniline)
CC(C)Nc1ccccc1,5.656,3,amine_secondary,N-2-Propylaminobenzene (N-Isopropylaniline)
CC(C)Nc1ccccc1,5.481,3,amine_secondary,N-2-Propylaminobenzene (N-Isopropylaniline)
CCCCNc1ccccc1,5.364,4,amine_secondary,N-Butylaminobenzene (N-Butylaniline)
CCCCNc1ccccc1,5.171,4,amine_secondary,N-Butylaminobenzene (N-Butylaniline)
CCCCNc1ccccc1,4.995,4,amine_secondary,N-Butylaminobenzene (N-Butylaniline)
CCC(C)Nc1ccccc1,5.688,4,amine_secondary,N-(1-Methylpropyl)aminobenzene (N-s-Butylaniline)
CCC(C)Nc1ccccc1,5.493,4,amine_secondary,N-(1-Methylpropyl)aminobenzene (N-s-Butylaniline)
CCC(C)Nc1ccccc1,5.305,4,amine_secondary,N-(1-Methylpropyl)aminobenzene (N-s-Butylaniline)
CC(C)CNc1ccccc1,5.08,4,amine_secondary,N-(2-Methylpropyl)aminobenzene (N-Isobutylaniline)
CC(C)CNc1ccccc1,4.904,4,amine_secondary,N-(2-Methylpropyl)aminobenzene (N-Isobutylaniline)
CC(C)CNc1ccccc1,4.737,4,amine_secondary,N-(2-Methylpropyl)aminobenzene (N-Isobutylaniline)
CC(C)(C)Nc1ccccc1,7.418,4,amine_secondary,N-(2-Methyl-2-propylethyl)aminobenzene (N-t-Butylaniline)
CC(C)(C)Nc1ccccc1,7.132,4,amine_secondary,N-(2-Methyl-2-propylethyl)aminobenzene (N-t-Butylaniline)
CC(C)(C)Nc1ccccc1,6.865,4,amine_secondary,N-(2-Methyl-2-propylethyl)aminobenzene (N-t-Butylaniline)
CCCCCNc1ccccc1,5.362,5,amine_secondary,Pentylaminobenzene (N-Pentylaniline)
CCCCCNc1ccccc1,5.162,5,amine_secondary,Pentylaminobenzene (N-Pentylaniline)
CCCCCNc1ccccc1,4.998,5,amine_secondary,Pentylaminobenzene (N-Pentylaniline)
CN(C)c1ccccc1,5.15,1,tertiary_amine,"N,N-Dimethylaniline"
CCN(CC)c1ccc(C)cc1,7.24,2,tertiary_amine,"N,N-Diethyl-4-methylaminobenzene (N,N-Diethyl-4-toluidine)"
CN(C)c1ccc(cc1)[S](O)(=O)=O,3.37,1,tertiary_amine,4-(Dimethylamino)benzenesulfonic acid
CN(C)c1ccc(cc1)[S](O)(=O)=O,3.6,1,tertiary_amine,4-(Dimethylamino)benzenesulfonic acid
[Na+].CN(C)c1ccc(cc1)N=Nc2ccc(cc2)[S]([O-])(=O)=O,3.602,7,tertiary_amine,4-[4-(Dimethylamino)phenylazo]benzenesulfonic acid (Methyl Orange)
[Na+].CN(C)c1ccc(cc1)N=Nc2ccc(cc2)[S]([O-])(=O)=O,3.438,7,tertiary_amine,4-[4-(Dimethylamino)phenylazo]benzenesulfonic acid (Methyl Orange)
[Na+].CN(C)c1ccc(cc1)N=Nc2ccc(cc2)[S]([O-])(=O)=O,3.285,7,tertiary_amine,4-[4-(Dimethylamino)phenylazo]benzenesulfonic acid (Methyl Orange)
CN(C)c1ccc(cc1)N=Nc2ccccc2[S](O)(=O)=O,3.528,1,tertiary_amine,2-[4-(Dimethylamino)phenylazo]benzenesulfonic acid
CN(C)c1ccc(cc1)N=Nc2ccccc2[S](O)(=O)=O,3.483,1,tertiary_amine,2-[4-(Dimethylamino)phenylazo]benzenesulfonic acid
CN(C)c1ccc(cc1)N=Nc2ccccc2[S](O)(=O)=O,3.446,1,tertiary_amine,2-[4-(Dimethylamino)phenylazo]benzenesulfonic acid
CCCC[Se]CC(O)=O,3.82,7,carboxylic_acid,(Butylseleno)acetic acid
OC(=O)C[Se]CCC=C,3.77,0,carboxylic_acid,(But-3-enylseleno)acetic acid
OC(=O)C[Se]CCCC=C,3.8,0,carboxylic_acid,(Pent-4-enylseleno)acetic acid
OC(=O)C[Se]c1ccccc1,3.64,0,carboxylic_acid,(Phenylseleno)acetic acid
Cc1ccccc1[Se]CC(O)=O,3.65,10,carboxylic_acid,(2-Methylphenylseleno)acetic acid
Cc1cccc([Se]CC(O)=O)c1,3.67,9,carboxylic_acid,(3-Methylphenylseleno)acetic acid
Cc1ccc([Se]CC(O)=O)cc1,3.72,8,carboxylic_acid,(4-Methylphenylseleno)acetic acid
OC(=O)C[Se]c1ccccc1Br,3.47,0,carboxylic_acid,(2-Bromophenylseleno)acetic acid
OC(=O)C[Se]c1ccc(Br)cc1,3.59,0,carboxylic_acid,(4-Bromophenylseleno)acetic acid
OC(=O)C[Se]c1ccccc1[N+]([O-])=O,3.31,19,n_oxide,(2-Nitrophenylseleno)acetic acid
OC(=O)C[Se]c1cccc(c1)[N+]([O-])=O,3.44,21,n_oxide,(3-Nitrophenylseleno)acetic acid
OC(=O)C[Se]c1ccc(cc1)[N+]([O-])=O,3.34,21,n_oxide,(4-Nitrophenylseleno)acetic acid
COc1ccccc1[Se]CC(O)=O,3.76,11,carboxylic_acid,(2-Methoxyphenylseleno)acetic acid
COc1cccc([Se]CC(O)=O)c1,3.62,10,carboxylic_acid,(3-Methoxyphenylseleno)acetic acid
COc1ccc([Se]CC(O)=O)cc1,3.75,9,carboxylic_acid,(4-Methoxyphenylseleno)acetic acid
CCOc1ccccc1[Se]CC(O)=O,3.79,12,carboxylic_acid,(2-Ethoxyphenylseleno)acetic acid
CCOc1ccc([Se]CC(O)=O)cc1,3.75,10,carboxylic_acid,(4-Ethoxyphenylseleno)acetic acid
OC(=O)C(=O)C(O)=O,3.52,0:6,carboxylic_acid:carboxylic_acid,Oxopropanedioic acid (Ketomalonic acid) (Mesoxalic acid)
OC(=O)C(=O)C(O)=O,1.82,0:6,carboxylic_acid:carboxylic_acid,Oxopropanedioic acid (Ketomalonic acid) (Mesoxalic acid)
OC(=O)CC(=O)C(O)=O,3.9,0:7,carboxylic_acid:carboxylic_acid,Oxobutanedioic acid (Oxaloacetic acid)
OC(=O)CC(=O)C(O)=O,3.79,0:7,carboxylic_acid:carboxylic_acid,Oxobutanedioic acid (Oxaloacetic acid)
OC(=O)CC(=O)C(O)=O,3.73,0:7,carboxylic_acid:carboxylic_acid,Oxobutanedioic acid (Oxaloacetic acid)
OC(=O)CC(=O)C(O)=O,4.37,0:7,carboxylic_acid:carboxylic_acid,Oxobutanedioic acid (Oxaloacetic acid)
OC(=O)CC(=O)C(O)=O,2.26,0:7,carboxylic_acid:carboxylic_acid,Oxobutanedioic acid (Oxaloacetic acid)
OC(=O)CC(=O)C(O)=O,2.17,0:7,carboxylic_acid:carboxylic_acid,Oxobutanedioic acid (Oxaloacetic acid)
OC(=O)CC(=O)C(O)=O,2.2,0:7,carboxylic_acid:carboxylic_acid,Oxobutanedioic acid (Oxaloacetic acid)
OC(=O)CC(=O)C(O)=O,2.56,0:7,carboxylic_acid:carboxylic_acid,Oxobutanedioic acid (Oxaloacetic acid)
CC(C(O)=O)C(=O)C(O)=O,4.18,3:8,carboxylic_acid:carboxylic_acid,"1-Oxopropane-1,2-dicarboxylic acid (2-Oxalopropanoic acid)"
CC(C(O)=O)C(=O)C(O)=O,1.7,3:8,carboxylic_acid:carboxylic_acid,"1-Oxopropane-1,2-dicarboxylic acid (2-Oxalopropanoic acid)"
CC(C)(C(O)=O)C(=O)C(O)=O,4.62,4:9,carboxylic_acid:carboxylic_acid,"3,3-Dimethyl-2-oxobutanedioic acid"
CC(C)(C(O)=O)C(=O)C(O)=O,1.8,4:9,carboxylic_acid:carboxylic_acid,"3,3-Dimethyl-2-oxobutanedioic acid"
OC(=O)CC(S)C(O)=O,10.38,0:5:7,carboxylic_acid:thiol:carboxylic_acid,DL-Mercaptobutanedioic acid (Thiomalic acid)
OC(=O)CC(S)C(O)=O,10.45,0:5:7,carboxylic_acid:thiol:carboxylic_acid,DL-Mercaptobutanedioic acid (Thiomalic acid)
OC(=O)CC(S)C(O)=O,10.15,0:5:7,carboxylic_acid:thiol:carboxylic_acid,DL-Mercaptobutanedioic acid (Thiomalic acid)
OC(=O)CC(S)C(O)=O,10.27,0:5:7,carboxylic_acid:thiol:carboxylic_acid,DL-Mercaptobutanedioic acid (Thiomalic acid)
OC(=O)CC(S)C(O)=O,9.79,0:5:7,carboxylic_acid:thiol:carboxylic_acid,DL-Mercaptobutanedioic acid (Thiomalic acid)
OC(=O)CC(S)C(O)=O,9.86,0:5:7,carboxylic_acid:thiol:carboxylic_acid,DL-Mercaptobutanedioic acid (Thiomalic acid)
OC(=O)CC(S)C(O)=O,10.02,0:5:7,carboxylic_acid:thiol:carboxylic_acid,DL-Mercaptobutanedioic acid (Thiomalic acid)
OC(=O)CC(S)C(O)=O,4.57,0:5:7,carboxylic_acid:thiol:carboxylic_acid,DL-Mercaptobutanedioic acid (Thiomalic acid)
OC(=O)CC(S)C(O)=O,4.51,0:5:7,carboxylic_acid:thiol:carboxylic_acid,DL-Mercaptobutanedioic acid (Thiomalic acid)
OC(=O)CC(S)C(O)=O,4.49,0:5:7,carboxylic_acid:thiol:carboxylic_acid,DL-Mercaptobutanedioic acid (Thiomalic acid)
OC(=O)CC(S)C(O)=O,4.4,0:5:7,carboxylic_acid:thiol:carboxylic_acid,DL-Mercaptobutanedioic acid (Thiomalic acid)
OC(=O)CC(S)C(O)=O,4.67,0:5:7,carboxylic_acid:thiol:carboxylic_acid,DL-Mercaptobutanedioic acid (Thiomalic acid)
OC(=O)CC(S)C(O)=O,4.88,0:5:7,carboxylic_acid:thiol:carboxylic_acid,DL-Mercaptobutanedioic acid (Thiomalic acid)
OC(=O)CC(S)C(O)=O,3.09,0:5:7,carboxylic_acid:thiol:carboxylic_acid,DL-Mercaptobutanedioic acid (Thiomalic acid)
OC(=O)CC(S)C(O)=O,3.13,0:5:7,carboxylic_acid:thiol:carboxylic_acid,DL-Mercaptobutanedioic acid (Thiomalic acid)
OC(=O)CC(S)C(O)=O,3.08,0:5:7,carboxylic_acid:thiol:carboxylic_acid,DL-Mercaptobutanedioic acid (Thiomalic acid)
OC(=O)CC(S)C(O)=O,3.03,0:5:7,carboxylic_acid:thiol:carboxylic_acid,DL-Mercaptobutanedioic acid (Thiomalic acid)
OC(=O)CC(S)C(O)=O,2.9,0:5:7,carboxylic_acid:thiol:carboxylic_acid,DL-Mercaptobutanedioic acid (Thiomalic acid)
OC(=O)CC(S)C(O)=O,3.27,0:5:7,carboxylic_acid:thiol:carboxylic_acid,DL-Mercaptobutanedioic acid (Thiomalic acid)
OC(=O)CC(S)C(O)=O,3.5,0:5:7,carboxylic_acid:thiol:carboxylic_acid,DL-Mercaptobutanedioic acid (Thiomalic acid)
OC(=O)CSCC(O)=O,4.13,0:7,carboxylic_acid:carboxylic_acid,Thiodiacetic acid
OC(=O)CSCC(O)=O,4.17,0:7,carboxylic_acid:carboxylic_acid,Thiodiacetic acid
OC(=O)CSCC(O)=O,4.0,0:7,carboxylic_acid:carboxylic_acid,Thiodiacetic acid
OC(=O)CSCC(O)=O,3.99,0:7,carboxylic_acid:carboxylic_acid,Thiodiacetic acid
OC(=O)CSCC(O)=O,3.98,0:7,carboxylic_acid:carboxylic_acid,Thiodiacetic acid
OC(=O)CSCC(O)=O,4.1,0:7,carboxylic_acid:carboxylic_acid,Thiodiacetic acid
OC(=O)CSCC(O)=O,4.14,0:7,carboxylic_acid:carboxylic_acid,Thiodiacetic acid
OC(=O)CSCC(O)=O,4.12,0:7,carboxylic_acid:carboxylic_acid,Thiodiacetic acid
OC(=O)CSCC(O)=O,4.24,0:7,carboxylic_acid:carboxylic_acid,Thiodiacetic acid
OC(=O)CSCC(O)=O,4.35,0:7,carboxylic_acid:carboxylic_acid,Thiodiacetic acid
OC(=O)CSCC(O)=O,4.56,0:7,carboxylic_acid:carboxylic_acid,Thiodiacetic acid
OC(=O)CSCC(O)=O,4.55,0:7,carboxylic_acid:carboxylic_acid,Thiodiacetic acid
OC(=O)CSCC(O)=O,3.14,0:7,carboxylic_acid:carboxylic_acid,Thiodiacetic acid
OC(=O)CSCC(O)=O,3.07,0:7,carboxylic_acid:carboxylic_acid,Thiodiacetic acid
OC(=O)CSCC(O)=O,3.12,0:7,carboxylic_acid:carboxylic_acid,Thiodiacetic acid
OC(=O)CSCC(O)=O,3.18,0:7,carboxylic_acid:carboxylic_acid,Thiodiacetic acid
OC(=O)CSCC(O)=O,3.22,0:7,carboxylic_acid:carboxylic_acid,Thiodiacetic acid
OC(=O)CSCC(O)=O,3.27,0:7,carboxylic_acid:carboxylic_acid,Thiodiacetic acid
OC(=O)CSCC(O)=O,3.33,0:7,carboxylic_acid:carboxylic_acid,Thiodiacetic acid
OC(=O)CSCC(O)=O,3.46,0:7,carboxylic_acid:carboxylic_acid,Thiodiacetic acid
OC(=O)CSCC(O)=O,3.66,0:7,carboxylic_acid:carboxylic_acid,Thiodiacetic acid
OC(=O)CSCC(O)=O,3.32,0:7,carboxylic_acid:carboxylic_acid,Thiodiacetic acid
OC(=O)CCSCC(O)=O,4.34,0:8,carboxylic_acid:carboxylic_acid,(2-Carboxyethylthio)acetic acid
OC(=O)CCSCC(O)=O,4.52,0:8,carboxylic_acid:carboxylic_acid,(2-Carboxyethylthio)acetic acid
OC(=O)CCSCC(O)=O,3.27,0:8,carboxylic_acid:carboxylic_acid,(2-Carboxyethylthio)acetic acid
OC(=O)CCSCC(O)=O,3.57,0:8,carboxylic_acid:carboxylic_acid,(2-Carboxyethylthio)acetic acid
OC(=O)CCSCCC(O)=O,4.67,0:9,carboxylic_acid:carboxylic_acid,"3,3'-Thiodipropanoic acid"
OC(=O)CCSCCC(O)=O,4.73,0:9,carboxylic_acid:carboxylic_acid,"3,3'-Thiodipropanoic acid"
OC(=O)CCSCCC(O)=O,4.53,0:9,carboxylic_acid:carboxylic_acid,"3,3'-Thiodipropanoic acid"
OC(=O)CCSCCC(O)=O,4.5,0:9,carboxylic_acid:carboxylic_acid,"3,3'-Thiodipropanoic acid"
OC(=O)CCSCCC(O)=O,4.64,0:9,carboxylic_acid:carboxylic_acid,"3,3'-Thiodipropanoic acid"
OC(=O)CCSCCC(O)=O,4.7,0:9,carboxylic_acid:carboxylic_acid,"3,3'-Thiodipropanoic acid"
OC(=O)CCSCCC(O)=O,4.8,0:9,carboxylic_acid:carboxylic_acid,"3,3'-Thiodipropanoic acid"
OC(=O)CCSCCC(O)=O,4.72,0:9,carboxylic_acid:carboxylic_acid,"3,3'-Thiodipropanoic acid"
OC(=O)CCSCCC(O)=O,4.95,0:9,carboxylic_acid:carboxylic_acid,"3,3'-Thiodipropanoic acid"
OC(=O)CCSCCC(O)=O,5.09,0:9,carboxylic_acid:carboxylic_acid,"3,3'-Thiodipropanoic acid"
OC(=O)CCSCCC(O)=O,3.9,0:9,carboxylic_acid:carboxylic_acid,"3,3'-Thiodipropanoic acid"
OC(=O)CCSCCC(O)=O,3.95,0:9,carboxylic_acid:carboxylic_acid,"3,3'-Thiodipropanoic acid"
OC(=O)CCSCCC(O)=O,3.83,0:9,carboxylic_acid:carboxylic_acid,"3,3'-Thiodipropanoic acid"
OC(=O)CCSCCC(O)=O,3.82,0:9,carboxylic_acid:carboxylic_acid,"3,3'-Thiodipropanoic acid"
OC(=O)CCSCCC(O)=O,4.0,0:9,carboxylic_acid:carboxylic_acid,"3,3'-Thiodipropanoic acid"
OC(=O)CCSCCC(O)=O,4.15,0:9,carboxylic_acid:carboxylic_acid,"3,3'-Thiodipropanoic acid"
OC(=O)CCSCCC(O)=O,4.09,0:9,carboxylic_acid:carboxylic_acid,"3,3'-Thiodipropanoic acid"
OC(=O)CCSCCC(O)=O,4.17,0:9,carboxylic_acid:carboxylic_acid,"3,3'-Thiodipropanoic acid"
OC(=O)CCSCCC(O)=O,4.37,0:9,carboxylic_acid:carboxylic_acid,"3,3'-Thiodipropanoic acid"
OC(=O)CCSCCC(O)=O,4.11,0:9,carboxylic_acid:carboxylic_acid,"3,3'-Thiodipropanoic acid"
OC(=O)CCCSCCCC(O)=O,4.9,0:11,carboxylic_acid:carboxylic_acid,"4,4'-Thiodibutanoic acid"
OC(=O)CCCSCCCC(O)=O,4.79,0:11,carboxylic_acid:carboxylic_acid,"4,4'-Thiodibutanoic acid"
OC(=O)CCCSCCCC(O)=O,4.8,0:11,carboxylic_acid:carboxylic_acid,"4,4'-Thiodibutanoic acid"
OC(=O)CCCSCCCC(O)=O,4.94,0:11,carboxylic_acid:carboxylic_acid,"4,4'-Thiodibutanoic acid"
OC(=O)CCCSCCCC(O)=O,5.06,0:11,carboxylic_acid:carboxylic_acid,"4,4'-Thiodibutanoic acid"
OC(=O)CCCSCCCC(O)=O,5.12,0:11,carboxylic_acid:carboxylic_acid,"4,4'-Thiodibutanoic acid"
OC(=O)CCCSCCCC(O)=O,5.33,0:11,carboxylic_acid:carboxylic_acid,"4,4'-Thiodibutanoic acid"
OC(=O)CCCSCCCC(O)=O,5.26,0:11,carboxylic_acid:carboxylic_acid,"4,4'-Thiodibutanoic acid"
OC(=O)CCCSCCCC(O)=O,4.18,0:11,carboxylic_acid:carboxylic_acid,"4,4'-Thiodibutanoic acid"
OC(=O)CCCSCCCC(O)=O,4.12,0:11,carboxylic_acid:carboxylic_acid,"4,4'-Thiodibutanoic acid"
OC(=O)CCCSCCCC(O)=O,4.15,0:11,carboxylic_acid:carboxylic_acid,"4,4'-Thiodibutanoic acid"
OC(=O)CCCSCCCC(O)=O,4.24,0:11,carboxylic_acid:carboxylic_acid,"4,4'-Thiodibutanoic acid"
OC(=O)CCCSCCCC(O)=O,4.31,0:11,carboxylic_acid:carboxylic_acid,"4,4'-Thiodibutanoic acid"
OC(=O)CCCSCCCC(O)=O,4.41,0:11,carboxylic_acid:carboxylic_acid,"4,4'-Thiodibutanoic acid"
OC(=O)CCCSCCCC(O)=O,4.5,0:11,carboxylic_acid:carboxylic_acid,"4,4'-Thiodibutanoic acid"
OC(=O)CCCSCCCC(O)=O,4.72,0:11,carboxylic_acid:carboxylic_acid,"4,4'-Thiodibutanoic acid"
OC(=O)CCCSCCCC(O)=O,4.35,0:11,carboxylic_acid:carboxylic_acid,"4,4'-Thiodibutanoic acid"
OC(=O)CSSCC(O)=O,3.8,0:8,carboxylic_acid:carboxylic_acid,Dithiodiacetic acid
OC(=O)CSSCC(O)=O,3.81,0:8,carboxylic_acid:carboxylic_acid,Dithiodiacetic acid
OC(=O)CSSCC(O)=O,3.65,0:8,carboxylic_acid:carboxylic_acid,Dithiodiacetic acid
OC(=O)CSSCC(O)=O,3.64,0:8,carboxylic_acid:carboxylic_acid,Dithiodiacetic acid
OC(=O)CSSCC(O)=O,3.69,0:8,carboxylic_acid:carboxylic_acid,Dithiodiacetic acid
OC(=O)CSSCC(O)=O,3.75,0:8,carboxylic_acid:carboxylic_acid,Dithiodiacetic acid
OC(=O)CSSCC(O)=O,3.9,0:8,carboxylic_acid:carboxylic_acid,Dithiodiacetic acid
OC(=O)CSSCC(O)=O,3.83,0:8,carboxylic_acid:carboxylic_acid,Dithiodiacetic acid
OC(=O)CSSCC(O)=O,3.92,0:8,carboxylic_acid:carboxylic_acid,Dithiodiacetic acid
OC(=O)CSSCC(O)=O,4.2,0:8,carboxylic_acid:carboxylic_acid,Dithiodiacetic acid
OC(=O)CSSCC(O)=O,2.94,0:8,carboxylic_acid:carboxylic_acid,Dithiodiacetic acid
OC(=O)CSSCC(O)=O,2.88,0:8,carboxylic_acid:carboxylic_acid,Dithiodiacetic acid
OC(=O)CSSCC(O)=O,2.87,0:8,carboxylic_acid:carboxylic_acid,Dithiodiacetic acid
OC(=O)CSSCC(O)=O,2.9,0:8,carboxylic_acid:carboxylic_acid,Dithiodiacetic acid
OC(=O)CSSCC(O)=O,2.8,0:8,carboxylic_acid:carboxylic_acid,Dithiodiacetic acid
OC(=O)CSSCC(O)=O,2.97,0:8,carboxylic_acid:carboxylic_acid,Dithiodiacetic acid
OC(=O)CSSCC(O)=O,3.01,0:8,carboxylic_acid:carboxylic_acid,Dithiodiacetic acid
OC(=O)CSSCC(O)=O,2.91,0:8,carboxylic_acid:carboxylic_acid,Dithiodiacetic acid
OC(=O)CSSCC(O)=O,3.12,0:8,carboxylic_acid:carboxylic_acid,Dithiodiacetic acid
OC(=O)CSSCC(O)=O,3.18,0:8,carboxylic_acid:carboxylic_acid,Dithiodiacetic acid
OC(=O)CSSCC(O)=O,3.07,0:8,carboxylic_acid:carboxylic_acid,Dithiodiacetic acid
OC(=O)CCSSCCC(O)=O,4.47,0:10,carboxylic_acid:carboxylic_acid,"3,3'-Dithiodipropanoic acid"
OC(=O)CCSSCCC(O)=O,4.99,0:10,carboxylic_acid:carboxylic_acid,"3,3'-Dithiodipropanoic acid"
OC(=O)CCSSCCC(O)=O,3.88,0:10,carboxylic_acid:carboxylic_acid,"3,3'-Dithiodipropanoic acid"
OC(=O)CCSSCCC(O)=O,4.34,0:10,carboxylic_acid:carboxylic_acid,"3,3'-Dithiodipropanoic acid"
OC(=O)CCCSSCCCC(O)=O,5.46,0:12,carboxylic_acid:carboxylic_acid,"4,4'-Dithiodibutanoic acid"
OC(=O)CCCSSCCCC(O)=O,4.79,0:12,carboxylic_acid:carboxylic_acid,"4,4'-Dithiodibutanoic acid"
OC(=O)CSCSCC(O)=O,3.96,0:9,carboxylic_acid:carboxylic_acid,(Methylenedithio)diacetic acid
OC(=O)CSCSCC(O)=O,3.83,0:9,carboxylic_acid:carboxylic_acid,(Methylenedithio)diacetic acid
OC(=O)CSCSCC(O)=O,3.99,0:9,carboxylic_acid:carboxylic_acid,(Methylenedithio)diacetic acid
OC(=O)CSCSCC(O)=O,3.82,0:9,carboxylic_acid:carboxylic_acid,(Methylenedithio)diacetic acid
OC(=O)CSCSCC(O)=O,3.88,0:9,carboxylic_acid:carboxylic_acid,(Methylenedithio)diacetic acid
OC(=O)CSCSCC(O)=O,3.92,0:9,carboxylic_acid:carboxylic_acid,(Methylenedithio)diacetic acid
OC(=O)CSCSCC(O)=O,4.05,0:9,carboxylic_acid:carboxylic_acid,(Methylenedithio)diacetic acid
OC(=O)CSCSCC(O)=O,4.03,0:9,carboxylic_acid:carboxylic_acid,(Methylenedithio)diacetic acid
OC(=O)CSCSCC(O)=O,4.08,0:9,carboxylic_acid:carboxylic_acid,(Methylenedithio)diacetic acid
OC(=O)CSCSCC(O)=O,4.34,0:9,carboxylic_acid:carboxylic_acid,(Methylenedithio)diacetic acid
OC(=O)CSCSCC(O)=O,3.16,0:9,carboxylic_acid:carboxylic_acid,(Methylenedithio)diacetic acid
OC(=O)CSCSCC(O)=O,3.09,0:9,carboxylic_acid:carboxylic_acid,(Methylenedithio)diacetic acid
OC(=O)CSCSCC(O)=O,3.18,0:9,carboxylic_acid:carboxylic_acid,(Methylenedithio)diacetic acid
OC(=O)CSCSCC(O)=O,3.1,0:9,carboxylic_acid:carboxylic_acid,(Methylenedithio)diacetic acid
OC(=O)CSCSCC(O)=O,3.21,0:9,carboxylic_acid:carboxylic_acid,(Methylenedithio)diacetic acid
OC(=O)CSCSCC(O)=O,3.23,0:9,carboxylic_acid:carboxylic_acid,(Methylenedithio)diacetic acid
OC(=O)CSCSCC(O)=O,3.37,0:9,carboxylic_acid:carboxylic_acid,(Methylenedithio)diacetic acid
OC(=O)CSCSCC(O)=O,3.31,0:9,carboxylic_acid:carboxylic_acid,(Methylenedithio)diacetic acid
OC(=O)CCSCSCCC(O)=O,4.7,0:11,carboxylic_acid:carboxylic_acid,"3,3'-(Methylenedithio)dipropanoic acid"
OC(=O)CCSCSCCC(O)=O,3.9,0:11,carboxylic_acid:carboxylic_acid,"3,3'-(Methylenedithio)dipropanoic acid"
OC(=O)CSCCSCC(O)=O,3.98,0:10,carboxylic_acid:carboxylic_acid,(Ethylenedithio)diacetic acid
OC(=O)CSCCSCC(O)=O,4.0,0:10,carboxylic_acid:carboxylic_acid,(Ethylenedithio)diacetic acid
OC(=O)CSCCSCC(O)=O,3.83,0:10,carboxylic_acid:carboxylic_acid,(Ethylenedithio)diacetic acid
OC(=O)CSCCSCC(O)=O,3.9,0:10,carboxylic_acid:carboxylic_acid,(Ethylenedithio)diacetic acid
OC(=O)CSCCSCC(O)=O,3.82,0:10,carboxylic_acid:carboxylic_acid,(Ethylenedithio)diacetic acid
OC(=O)CSCCSCC(O)=O,3.87,0:10,carboxylic_acid:carboxylic_acid,(Ethylenedithio)diacetic acid
OC(=O)CSCCSCC(O)=O,3.91,0:10,carboxylic_acid:carboxylic_acid,(Ethylenedithio)diacetic acid
OC(=O)CSCCSCC(O)=O,3.94,0:10,carboxylic_acid:carboxylic_acid,(Ethylenedithio)diacetic acid
OC(=O)CSCCSCC(O)=O,4.1,0:10,carboxylic_acid:carboxylic_acid,(Ethylenedithio)diacetic acid
OC(=O)CSCCSCC(O)=O,4.06,0:10,carboxylic_acid:carboxylic_acid,(Ethylenedithio)diacetic acid
OC(=O)CSCCSCC(O)=O,4.11,0:10,carboxylic_acid:carboxylic_acid,(Ethylenedithio)diacetic acid
OC(=O)CSCCSCC(O)=O,4.35,0:10,carboxylic_acid:carboxylic_acid,(Ethylenedithio)diacetic acid
OC(=O)CSCCSCC(O)=O,3.21,0:10,carboxylic_acid:carboxylic_acid,(Ethylenedithio)diacetic acid
OC(=O)CSCCSCC(O)=O,3.2,0:10,carboxylic_acid:carboxylic_acid,(Ethylenedithio)diacetic acid