SMILES,pKa,Dissociable_Atoms,Functional_Group,Name,Dissociable_Atoms_Ordered,Functional_Group_Ordered,Dissociation_Order
NC1=NC(=O)c2ncn(C3OC(CO[P](O)(=O)O[P](O)(O)=O)C(O)C3O)c2N1,7.19,2:27,pyridine_nitrogen:pyridine_nitrogen,Guanosine-5'-(trihydrogendiphosphate) (GDP),2:27,pyridine_nitrogen:pyridine_nitrogen,2(pyridine_nitrogen) > 27(pyridine_nitrogen)
NC1=NC(=O)c2ncn(C3OC(CO[P](O)(=O)O[P](O)(O)=O)C(O)C3O)c2N1,2.8,2:27,pyridine_nitrogen:pyridine_nitrogen,Guanosine-5'-(trihydrogendiphosphate) (GDP),2:27,pyridine_nitrogen:pyridine_nitrogen,2(pyridine_nitrogen) > 27(pyridine_nitrogen)
OC1C(O)C(OC1CO[P](O)(=O)O[P](O)(=O)O[P](O)(O)=O)n2cnc3C(=O)N=CNc23,6.4,29:0,amine_secondary:alcohol,Inosine-5'-(tetrahydrogentriphosphate) (ITP),29:0,amine_secondary:alcohol,29(amine_secondary) > 0(alcohol)
OC1C(O)C(OC1CO[P](O)(=O)O[P](O)(=O)O[P](O)(O)=O)n2cnc3C(=O)N=CNc23,6.49,29:0,amine_secondary:alcohol,Inosine-5'-(tetrahydrogentriphosphate) (ITP),29:0,amine_secondary:alcohol,29(amine_secondary) > 0(alcohol)
OC1C(O)C(OC1CO[P](O)(=O)O[P](O)(=O)O[P](O)(O)=O)n2cnc3C(=O)N=CNc23,7.01,29:0,amine_secondary:alcohol,Inosine-5'-(tetrahydrogentriphosphate) (ITP),29:0,amine_secondary:alcohol,29(amine_secondary) > 0(alcohol)
OC1C(O)C(OC1CO[P](O)(=O)O[P](O)(=O)O[P](O)(O)=O)n2cnc3C(=O)N=CNc23,6.39,29:0,amine_secondary:alcohol,Inosine-5'-(tetrahydrogentriphosphate) (ITP),29:0,amine_secondary:alcohol,29(amine_secondary) > 0(alcohol)
OC1C(O)C(OC1CO[P](O)(=O)O[P](O)(=O)O[P](O)(O)=O)n2cnc3C(=O)N=CNc23,7.68,29:0,amine_secondary:alcohol,Inosine-5'-(tetrahydrogentriphosphate) (ITP),29:0,amine_secondary:alcohol,29(amine_secondary) > 0(alcohol)
OC1C(O)C(OC1CO[P](O)(=O)O[P](O)(=O)O[P](O)(O)=O)n2cnc3C(=O)N=CNc23,2.15,29:0,amine_secondary:alcohol,Inosine-5'-(tetrahydrogentriphosphate) (ITP),29:0,amine_secondary:alcohol,29(amine_secondary) > 0(alcohol)
OC1C(O)C(OC1CO[P](O)(=O)O[P](O)(=O)O[P](O)(O)=O)n2cnc3C(=O)N=CNc23,2.18,29:0,amine_secondary:alcohol,Inosine-5'-(tetrahydrogentriphosphate) (ITP),29:0,amine_secondary:alcohol,29(amine_secondary) > 0(alcohol)
Nc1ncnc2n(cnc12)C3OC(CO[P](O)(=O)O[P](O)(=O)O[P](O)(O)=O)C(O)C3O,6.38,0:28:30,amine_primary:alcohol:alcohol,Adenosine-5'-(tetrahydrogentriphosphate) (ATP),0:28:30,amine_primary:alcohol:alcohol,0(amine_primary) > 28(alcohol) > 30(alcohol)
Nc1ncnc2n(cnc12)C3OC(CO[P](O)(=O)O[P](O)(=O)O[P](O)(O)=O)C(O)C3O,6.48,0:28:30,amine_primary:alcohol:alcohol,Adenosine-5'-(tetrahydrogentriphosphate) (ATP),0:28:30,amine_primary:alcohol:alcohol,0(amine_primary) > 28(alcohol) > 30(alcohol)
Nc1ncnc2n(cnc12)C3OC(CO[P](O)(=O)O[P](O)(=O)O[P](O)(O)=O)C(O)C3O,6.82,0:28:30,amine_primary:alcohol:alcohol,Adenosine-5'-(tetrahydrogentriphosphate) (ATP),0:28:30,amine_primary:alcohol:alcohol,0(amine_primary) > 28(alcohol) > 30(alcohol)
Nc1ncnc2n(cnc12)C3OC(CO[P](O)(=O)O[P](O)(=O)O[P](O)(O)=O)C(O)C3O,6.92,0:28:30,amine_primary:alcohol:alcohol,Adenosine-5'-(tetrahydrogentriphosphate) (ATP),0:28:30,amine_primary:alcohol:alcohol,0(amine_primary) > 28(alcohol) > 30(alcohol)
Nc1ncnc2n(cnc12)C3OC(CO[P](O)(=O)O[P](O)(=O)O[P](O)(O)=O)C(O)C3O,6.95,0:28:30,amine_primary:alcohol:alcohol,Adenosine-5'-(tetrahydrogentriphosphate) (ATP),0:28:30,amine_primary:alcohol:alcohol,0(amine_primary) > 28(alcohol) > 30(alcohol)
Nc1ncnc2n(cnc12)C3OC(CO[P](O)(=O)O[P](O)(=O)O[P](O)(O)=O)C(O)C3O,6.42,0:28:30,amine_primary:alcohol:alcohol,Adenosine-5'-(tetrahydrogentriphosphate) (ATP),0:28:30,amine_primary:alcohol:alcohol,0(amine_primary) > 28(alcohol) > 30(alcohol)
Nc1ncnc2n(cnc12)C3OC(CO[P](O)(=O)O[P](O)(=O)O[P](O)(O)=O)C(O)C3O,5.96,0:28:30,amine_primary:alcohol:alcohol,Adenosine-5'-(tetrahydrogentriphosphate) (ATP),0:28:30,amine_primary:alcohol:alcohol,0(amine_primary) > 28(alcohol) > 30(alcohol)
Nc1ncnc2n(cnc12)C3OC(CO[P](O)(=O)O[P](O)(=O)O[P](O)(O)=O)C(O)C3O,6.07,0:28:30,amine_primary:alcohol:alcohol,Adenosine-5'-(tetrahydrogentriphosphate) (ATP),0:28:30,amine_primary:alcohol:alcohol,0(amine_primary) > 28(alcohol) > 30(alcohol)
Nc1ncnc2n(cnc12)C3OC(CO[P](O)(=O)O[P](O)(=O)O[P](O)(O)=O)C(O)C3O,6.71,0:28:30,amine_primary:alcohol:alcohol,Adenosine-5'-(tetrahydrogentriphosphate) (ATP),0:28:30,amine_primary:alcohol:alcohol,0(amine_primary) > 28(alcohol) > 30(alcohol)
Nc1ncnc2n(cnc12)C3OC(CO[P](O)(=O)O[P](O)(=O)O[P](O)(O)=O)C(O)C3O,5.82,0:28:30,amine_primary:alcohol:alcohol,Adenosine-5'-(tetrahydrogentriphosphate) (ATP),0:28:30,amine_primary:alcohol:alcohol,0(amine_primary) > 28(alcohol) > 30(alcohol)
Nc1ncnc2n(cnc12)C3OC(CO[P](O)(=O)O[P](O)(=O)O[P](O)(O)=O)C(O)C3O,5.94,0:28:30,amine_primary:alcohol:alcohol,Adenosine-5'-(tetrahydrogentriphosphate) (ATP),0:28:30,amine_primary:alcohol:alcohol,0(amine_primary) > 28(alcohol) > 30(alcohol)
Nc1ncnc2n(cnc12)C3OC(CO[P](O)(=O)O[P](O)(=O)O[P](O)(O)=O)C(O)C3O,6.74,0:28:30,amine_primary:alcohol:alcohol,Adenosine-5'-(tetrahydrogentriphosphate) (ATP),0:28:30,amine_primary:alcohol:alcohol,0(amine_primary) > 28(alcohol) > 30(alcohol)
Nc1ncnc2n(cnc12)C3OC(CO[P](O)(=O)O[P](O)(=O)O[P](O)(O)=O)C(O)C3O,7.68,0:28:30,amine_primary:alcohol:alcohol,Adenosine-5'-(tetrahydrogentriphosphate) (ATP),0:28:30,amine_primary:alcohol:alcohol,0(amine_primary) > 28(alcohol) > 30(alcohol)
Nc1ncnc2n(cnc12)C3OC(CO[P](O)(=O)O[P](O)(=O)O[P](O)(O)=O)C(O)C3O,7.81,0:28:30,amine_primary:alcohol:alcohol,Adenosine-5'-(tetrahydrogentriphosphate) (ATP),0:28:30,amine_primary:alcohol:alcohol,0(amine_primary) > 28(alcohol) > 30(alcohol)
Nc1ncnc2n(cnc12)C3OC(CO[P](O)(=O)O[P](O)(=O)O[P](O)(O)=O)C(O)C3O,3.99,0:28:30,amine_primary:alcohol:alcohol,Adenosine-5'-(tetrahydrogentriphosphate) (ATP),0:28:30,amine_primary:alcohol:alcohol,0(amine_primary) > 28(alcohol) > 30(alcohol)
Nc1ncnc2n(cnc12)C3OC(CO[P](O)(=O)O[P](O)(=O)O[P](O)(O)=O)C(O)C3O,3.88,0:28:30,amine_primary:alcohol:alcohol,Adenosine-5'-(tetrahydrogentriphosphate) (ATP),0:28:30,amine_primary:alcohol:alcohol,0(amine_primary) > 28(alcohol) > 30(alcohol)
Nc1ncnc2n(cnc12)C3OC(CO[P](O)(=O)O[P](O)(=O)O[P](O)(O)=O)C(O)C3O,3.92,0:28:30,amine_primary:alcohol:alcohol,Adenosine-5'-(tetrahydrogentriphosphate) (ATP),0:28:30,amine_primary:alcohol:alcohol,0(amine_primary) > 28(alcohol) > 30(alcohol)
Nc1ncnc2n(cnc12)C3OC(CO[P](O)(=O)O[P](O)(=O)O[P](O)(O)=O)C(O)C3O,3.91,0:28:30,amine_primary:alcohol:alcohol,Adenosine-5'-(tetrahydrogentriphosphate) (ATP),0:28:30,amine_primary:alcohol:alcohol,0(amine_primary) > 28(alcohol) > 30(alcohol)
Nc1ncnc2n(cnc12)C3OC(CO[P](O)(=O)O[P](O)(=O)O[P](O)(O)=O)C(O)C3O,3.87,0:28:30,amine_primary:alcohol:alcohol,Adenosine-5'-(tetrahydrogentriphosphate) (ATP),0:28:30,amine_primary:alcohol:alcohol,0(amine_primary) > 28(alcohol) > 30(alcohol)
Nc1ncnc2n(cnc12)C3OC(CO[P](O)(=O)O[P](O)(=O)O[P](O)(O)=O)C(O)C3O,4.55,0:28:30,amine_primary:alcohol:alcohol,Adenosine-5'-(tetrahydrogentriphosphate) (ATP),0:28:30,amine_primary:alcohol:alcohol,0(amine_primary) > 28(alcohol) > 30(alcohol)
Nc1ncnc2n(cnc12)C3OC(CO[P](O)(=O)O[P](O)(=O)O[P](O)(O)=O)C(O)C3O,4.34,0:28:30,amine_primary:alcohol:alcohol,Adenosine-5'-(tetrahydrogentriphosphate) (ATP),0:28:30,amine_primary:alcohol:alcohol,0(amine_primary) > 28(alcohol) > 30(alcohol)
Nc1ncnc2n(cnc12)C3OC(CO[P](O)(=O)O[P](O)(=O)O[P](O)(O)=O)C(O)C3O,1.9,0:28:30,amine_primary:alcohol:alcohol,Adenosine-5'-(tetrahydrogentriphosphate) (ATP),0:28:30,amine_primary:alcohol:alcohol,0(amine_primary) > 28(alcohol) > 30(alcohol)
Nc1ncnc2n(cnc12)C3OC(CO[P](O)(=O)O[P](O)(=O)O[P](O)(O)=O)C(O)C3O,1.91,0:28:30,amine_primary:alcohol:alcohol,Adenosine-5'-(tetrahydrogentriphosphate) (ATP),0:28:30,amine_primary:alcohol:alcohol,0(amine_primary) > 28(alcohol) > 30(alcohol)
Nc1ncnc2n(cnc12)C3OC(CO[P](O)(=O)O[P](O)(=O)O[P](O)(O)=O)C(O)C3O,2.04,0:28:30,amine_primary:alcohol:alcohol,Adenosine-5'-(tetrahydrogentriphosphate) (ATP),0:28:30,amine_primary:alcohol:alcohol,0(amine_primary) > 28(alcohol) > 30(alcohol)
NC1=NC(=O)c2ncn(C3OC(CO[P](O)(=O)O[P](O)(=O)O[P](O)(O)=O)C(O)C3O)c2N1,6.41,2:31,pyridine_nitrogen:pyridine_nitrogen,Guanosine-5'-(tetrahydrogentriphosphate) (GTP),2:31,pyridine_nitrogen:pyridine_nitrogen,2(pyridine_nitrogen) > 31(pyridine_nitrogen)
NC1=NC(=O)c2ncn(C3OC(CO[P](O)(=O)O[P](O)(=O)O[P](O)(O)=O)C(O)C3O)c2N1,6.53,2:31,pyridine_nitrogen:pyridine_nitrogen,Guanosine-5'-(tetrahydrogentriphosphate) (GTP),2:31,pyridine_nitrogen:pyridine_nitrogen,2(pyridine_nitrogen) > 31(pyridine_nitrogen)
NC1=NC(=O)c2ncn(C3OC(CO[P](O)(=O)O[P](O)(=O)O[P](O)(O)=O)C(O)C3O)c2N1,6.95,2:31,pyridine_nitrogen:pyridine_nitrogen,Guanosine-5'-(tetrahydrogentriphosphate) (GTP),2:31,pyridine_nitrogen:pyridine_nitrogen,2(pyridine_nitrogen) > 31(pyridine_nitrogen)
NC1=NC(=O)c2ncn(C3OC(CO[P](O)(=O)O[P](O)(=O)O[P](O)(O)=O)C(O)C3O)c2N1,6.43,2:31,pyridine_nitrogen:pyridine_nitrogen,Guanosine-5'-(tetrahydrogentriphosphate) (GTP),2:31,pyridine_nitrogen:pyridine_nitrogen,2(pyridine_nitrogen) > 31(pyridine_nitrogen)
NC1=NC(=O)c2ncn(C3OC(CO[P](O)(=O)O[P](O)(=O)O[P](O)(O)=O)C(O)C3O)c2N1,7.65,2:31,pyridine_nitrogen:pyridine_nitrogen,Guanosine-5'-(tetrahydrogentriphosphate) (GTP),2:31,pyridine_nitrogen:pyridine_nitrogen,2(pyridine_nitrogen) > 31(pyridine_nitrogen)
NC1=NC(=O)c2ncn(C3OC(CO[P](O)(=O)O[P](O)(=O)O[P](O)(O)=O)C(O)C3O)c2N1,2.93,2:31,pyridine_nitrogen:pyridine_nitrogen,Guanosine-5'-(tetrahydrogentriphosphate) (GTP),2:31,pyridine_nitrogen:pyridine_nitrogen,2(pyridine_nitrogen) > 31(pyridine_nitrogen)
NC1=NC(=O)c2ncn(C3OC(CO[P](O)(=O)O[P](O)(=O)O[P](O)(O)=O)C(O)C3O)c2N1,2.88,2:31,pyridine_nitrogen:pyridine_nitrogen,Guanosine-5'-(tetrahydrogentriphosphate) (GTP),2:31,pyridine_nitrogen:pyridine_nitrogen,2(pyridine_nitrogen) > 31(pyridine_nitrogen)
Nc1ncnc2n(cnc12)[C@@H]3O[C@H](CO[P](O)(=O)O[P](O)(=O)O[P](O)(=O)O[P](O)(O)=O)[C@@H](O)[C@H]3O,6.65,2:4,pyridine_nitrogen:pyridine_nitrogen,Adenosine-5'-(pentahydrogentetraphosphate) (AQP),2:4,pyridine_nitrogen:pyridine_nitrogen,2(pyridine_nitrogen) > 4(pyridine_nitrogen)
Nc1ncnc2n(cnc12)[C@@H]3O[C@H](CO[P](O)(=O)O[P](O)(=O)O[P](O)(=O)O[P](O)(O)=O)[C@@H](O)[C@H]3O,6.77,2:4,pyridine_nitrogen:pyridine_nitrogen,Adenosine-5'-(pentahydrogentetraphosphate) (AQP),2:4,pyridine_nitrogen:pyridine_nitrogen,2(pyridine_nitrogen) > 4(pyridine_nitrogen)
Nc1ncnc2n(cnc12)[C@@H]3O[C@H](CO[P](O)(=O)O[P](O)(=O)O[P](O)(=O)O[P](O)(O)=O)[C@@H](O)[C@H]3O,6.79,2:4,pyridine_nitrogen:pyridine_nitrogen,Adenosine-5'-(pentahydrogentetraphosphate) (AQP),2:4,pyridine_nitrogen:pyridine_nitrogen,2(pyridine_nitrogen) > 4(pyridine_nitrogen)
Nc1ncnc2n(cnc12)[C@@H]3O[C@H](CO[P](O)(=O)O[P](O)(=O)O[P](O)(=O)O[P](O)(O)=O)[C@@H](O)[C@H]3O,7.25,2:4,pyridine_nitrogen:pyridine_nitrogen,Adenosine-5'-(pentahydrogentetraphosphate) (AQP),2:4,pyridine_nitrogen:pyridine_nitrogen,2(pyridine_nitrogen) > 4(pyridine_nitrogen)
Nc1ncnc2n(cnc12)[C@@H]3O[C@H](CO[P](O)(=O)O[P](O)(=O)O[P](O)(=O)O[P](O)(O)=O)[C@@H](O)[C@H]3O,7.44,2:4,pyridine_nitrogen:pyridine_nitrogen,Adenosine-5'-(pentahydrogentetraphosphate) (AQP),2:4,pyridine_nitrogen:pyridine_nitrogen,2(pyridine_nitrogen) > 4(pyridine_nitrogen)
Nc1ncnc2n(cnc12)[C@@H]3O[C@H](CO[P](O)(=O)O[P](O)(=O)O[P](O)(=O)O[P](O)(O)=O)[C@@H](O)[C@H]3O,7.46,2:4,pyridine_nitrogen:pyridine_nitrogen,Adenosine-5'-(pentahydrogentetraphosphate) (AQP),2:4,pyridine_nitrogen:pyridine_nitrogen,2(pyridine_nitrogen) > 4(pyridine_nitrogen)
Nc1ncnc2n(cnc12)[C@@H]3O[C@H](CO[P](O)(=O)O[P](O)(=O)O[P](O)(=O)O[P](O)(O)=O)[C@@H](O)[C@H]3O,4.05,2:4,pyridine_nitrogen:pyridine_nitrogen,Adenosine-5'-(pentahydrogentetraphosphate) (AQP),2:4,pyridine_nitrogen:pyridine_nitrogen,2(pyridine_nitrogen) > 4(pyridine_nitrogen)
Nc1ncnc2n(cnc12)[C@@H]3O[C@H](CO[P](O)(=O)O[P](O)(=O)O[P](O)(=O)O[P](O)(O)=O)[C@@H](O)[C@H]3O,4.09,2:4,pyridine_nitrogen:pyridine_nitrogen,Adenosine-5'-(pentahydrogentetraphosphate) (AQP),2:4,pyridine_nitrogen:pyridine_nitrogen,2(pyridine_nitrogen) > 4(pyridine_nitrogen)
NC1(CCCC1)[P](O)(O)=O,10.17,0:6:7,amine_primary:phosphate:phosphate,1-Aminocyclopentylphosphonic acid,0:6:7,amine_primary:phosphate:phosphate,0(amine_primary) > 6(phosphate) > 7(phosphate)
NC1(CCCC1)[P](O)(O)=O,5.83,0:6:7,amine_primary:phosphate:phosphate,1-Aminocyclopentylphosphonic acid,0:6:7,amine_primary:phosphate:phosphate,0(amine_primary) > 6(phosphate) > 7(phosphate)
NC1(CCCC1)[P](O)(O)=O,1.0,0:6:7,amine_primary:phosphate:phosphate,1-Aminocyclopentylphosphonic acid,0:6:7,amine_primary:phosphate:phosphate,0(amine_primary) > 6(phosphate) > 7(phosphate)
CC(C)(N)[P](O)(O)=O,10.3,3:4:5,amine_primary:phosphate:phosphate,2-Amino-2-propylphosphonic acid,3:4:5,amine_primary:phosphate:phosphate,3(amine_primary) > 4(phosphate) > 5(phosphate)
CC(C)(N)[P](O)(O)=O,5.82,3:4:5,amine_primary:phosphate:phosphate,2-Amino-2-propylphosphonic acid,3:4:5,amine_primary:phosphate:phosphate,3(amine_primary) > 4(phosphate) > 5(phosphate)
CC(C)(N)[P](O)(O)=O,0.6,3:4:5,amine_primary:phosphate:phosphate,2-Amino-2-propylphosphonic acid,3:4:5,amine_primary:phosphate:phosphate,3(amine_primary) > 4(phosphate) > 5(phosphate)
NCCC[P](O)(O)=O,11.04,0:4:5,amine_primary:phosphate:phosphate,3-Aminopropylphosphonic acid,0:4:5,amine_primary:phosphate:phosphate,0(amine_primary) > 4(phosphate) > 5(phosphate)
NCCC[P](O)(O)=O,6.88,0:4:5,amine_primary:phosphate:phosphate,3-Aminopropylphosphonic acid,0:4:5,amine_primary:phosphate:phosphate,0(amine_primary) > 4(phosphate) > 5(phosphate)
NCCC[P](O)(O)=O,1.6,0:4:5,amine_primary:phosphate:phosphate,3-Aminopropylphosphonic acid,0:4:5,amine_primary:phosphate:phosphate,0(amine_primary) > 4(phosphate) > 5(phosphate)
O[P](O)(=O)C1CCCCN1,11.31,9:0:1,amine_secondary:phosphate:phosphate,Piperidine-2-phosphonic acid,9:0:1,amine_secondary:phosphate:phosphate,9(amine_secondary) > 0(phosphate) > 1(phosphate)
O[P](O)(=O)C1CCCCN1,5.74,9:0:1,amine_secondary:phosphate:phosphate,Piperidine-2-phosphonic acid,9:0:1,amine_secondary:phosphate:phosphate,9(amine_secondary) > 0(phosphate) > 1(phosphate)
O[P](O)(=O)C1CCCCN1,2.0,9:0:1,amine_secondary:phosphate:phosphate,Piperidine-2-phosphonic acid,9:0:1,amine_secondary:phosphate:phosphate,9(amine_secondary) > 0(phosphate) > 1(phosphate)
Nc1cccc(c1)[P](O)(O)=O,7.53,0:7,amine_primary:phosphate,3-Aminobenzenephosphonic acid,0:7,amine_primary:phosphate,0(amine_primary) > 7(phosphate)
Nc1cccc(c1)[P](O)(O)=O,4.5,0:7,amine_primary:phosphate,3-Aminobenzenephosphonic acid,0:7,amine_primary:phosphate,0(amine_primary) > 7(phosphate)
Nc1ccc(cc1)[P](O)(O)=O,7.84,0:7,amine_primary:phosphate,4-Aminobenzenephosphonic acid,0:7,amine_primary:phosphate,0(amine_primary) > 7(phosphate)
Nc1ccc(cc1)[P](O)(O)=O,3.99,0:7,amine_primary:phosphate,4-Aminobenzenephosphonic acid,0:7,amine_primary:phosphate,0(amine_primary) > 7(phosphate)
NC([P](O)(O)=O)[P](O)(O)=O,11.7,0:2:3:4,amine_primary:phosphate:phosphate:phosphate,Aminomethylenediphosphonic acid,0:2:3:4,amine_primary:phosphate:phosphate:phosphate,0(amine_primary) > 2(phosphate) > 3(phosphate) > 4(phosphate)
NC([P](O)(O)=O)[P](O)(O)=O,8.42,0:2:3:4,amine_primary:phosphate:phosphate:phosphate,Aminomethylenediphosphonic acid,0:2:3:4,amine_primary:phosphate:phosphate:phosphate,0(amine_primary) > 2(phosphate) > 3(phosphate) > 4(phosphate)
NC([P](O)(O)=O)[P](O)(O)=O,5.42,0:2:3:4,amine_primary:phosphate:phosphate:phosphate,Aminomethylenediphosphonic acid,0:2:3:4,amine_primary:phosphate:phosphate:phosphate,0(amine_primary) > 2(phosphate) > 3(phosphate) > 4(phosphate)
NC([P](O)(O)=O)[P](O)(O)=O,1.4,0:2:3:4,amine_primary:phosphate:phosphate:phosphate,Aminomethylenediphosphonic acid,0:2:3:4,amine_primary:phosphate:phosphate:phosphate,0(amine_primary) > 2(phosphate) > 3(phosphate) > 4(phosphate)
CC(N)([P](O)(O)=O)[P](O)(O)=O,11.5,2:3:4:5,amine_primary:phosphate:phosphate:phosphate,"1-Aminoethane-1,1-diphosphonic acid",2:3:4:5,amine_primary:phosphate:phosphate:phosphate,2(amine_primary) > 3(phosphate) > 4(phosphate) > 5(phosphate)
CC(N)([P](O)(O)=O)[P](O)(O)=O,8.58,2:3:4:5,amine_primary:phosphate:phosphate:phosphate,"1-Aminoethane-1,1-diphosphonic acid",2:3:4:5,amine_primary:phosphate:phosphate:phosphate,2(amine_primary) > 3(phosphate) > 4(phosphate) > 5(phosphate)
CC(N)([P](O)(O)=O)[P](O)(O)=O,5.37,2:3:4:5,amine_primary:phosphate:phosphate:phosphate,"1-Aminoethane-1,1-diphosphonic acid",2:3:4:5,amine_primary:phosphate:phosphate:phosphate,2(amine_primary) > 3(phosphate) > 4(phosphate) > 5(phosphate)
CC(N)([P](O)(O)=O)[P](O)(O)=O,1.5,2:3:4:5,amine_primary:phosphate:phosphate:phosphate,"1-Aminoethane-1,1-diphosphonic acid",2:3:4:5,amine_primary:phosphate:phosphate:phosphate,2(amine_primary) > 3(phosphate) > 4(phosphate) > 5(phosphate)
NO[P](O)(=O)C(c1ccccc1)[P](O)(O)=O,10.29,0:2:3:12,amine_primary:phosphate:phosphate:phosphate,Amino(phenyl)methylenediphosphonic acid,0:2:3:12,amine_primary:phosphate:phosphate:phosphate,0(amine_primary) > 2(phosphate) > 3(phosphate) > 12(phosphate)
NO[P](O)(=O)C(c1ccccc1)[P](O)(O)=O,8.17,0:2:3:12,amine_primary:phosphate:phosphate:phosphate,Amino(phenyl)methylenediphosphonic acid,0:2:3:12,amine_primary:phosphate:phosphate:phosphate,0(amine_primary) > 2(phosphate) > 3(phosphate) > 12(phosphate)
NO[P](O)(=O)C(c1ccccc1)[P](O)(O)=O,5.29,0:2:3:12,amine_primary:phosphate:phosphate:phosphate,Amino(phenyl)methylenediphosphonic acid,0:2:3:12,amine_primary:phosphate:phosphate:phosphate,0(amine_primary) > 2(phosphate) > 3(phosphate) > 12(phosphate)
NO[P](O)(=O)C(c1ccccc1)[P](O)(O)=O,1.6,0:2:3:12,amine_primary:phosphate:phosphate:phosphate,Amino(phenyl)methylenediphosphonic acid,0:2:3:12,amine_primary:phosphate:phosphate:phosphate,0(amine_primary) > 2(phosphate) > 3(phosphate) > 12(phosphate)
NCCCC(O)([P](O)(O)=O)[P](O)(O)=O,11.6,0:5:6:7,amine_primary:alcohol:phosphate:phosphate,"4-Amino-1-hydroxybutane-1,1-diphosphonic acid",0:6:7:5,amine_primary:phosphate:phosphate:alcohol,0(amine_primary) > 6(phosphate) > 7(phosphate) > 5(alcohol)
NCCCC(O)([P](O)(O)=O)[P](O)(O)=O,10.5,0:5:6:7,amine_primary:alcohol:phosphate:phosphate,"4-Amino-1-hydroxybutane-1,1-diphosphonic acid",0:6:7:5,amine_primary:phosphate:phosphate:alcohol,0(amine_primary) > 6(phosphate) > 7(phosphate) > 5(alcohol)
NCCCC(O)([P](O)(O)=O)[P](O)(O)=O,8.73,0:5:6:7,amine_primary:alcohol:phosphate:phosphate,"4-Amino-1-hydroxybutane-1,1-diphosphonic acid",0:6:7:5,amine_primary:phosphate:phosphate:alcohol,0(amine_primary) > 6(phosphate) > 7(phosphate) > 5(alcohol)
NCCCC(O)([P](O)(O)=O)[P](O)(O)=O,2.72,0:5:6:7,amine_primary:alcohol:phosphate:phosphate,"4-Amino-1-hydroxybutane-1,1-diphosphonic acid",0:6:7:5,amine_primary:phosphate:phosphate:alcohol,0(amine_primary) > 6(phosphate) > 7(phosphate) > 5(alcohol)
OC(=O)[P](O)(O)=O,7.57,0:3:4,carboxylic_acid:phosphate:phosphate,Phosphonoformic acid,0:3:4,carboxylic_acid:phosphate:phosphate,0(carboxylic_acid) > 3(phosphate) > 4(phosphate)
OC(=O)[P](O)(O)=O,3.6,0:3:4,carboxylic_acid:phosphate:phosphate,Phosphonoformic acid,0:3:4,carboxylic_acid:phosphate:phosphate,0(carboxylic_acid) > 3(phosphate) > 4(phosphate)
OC(=O)[P](O)(O)=O,1.7,0:3:4,carboxylic_acid:phosphate:phosphate,Phosphonoformic acid,0:3:4,carboxylic_acid:phosphate:phosphate,0(carboxylic_acid) > 3(phosphate) > 4(phosphate)
OC(=O)C[P](O)(O)=O,7.84,0:4:5,carboxylic_acid:phosphate:phosphate,Phosphonoacetic acid,0:4:5,carboxylic_acid:phosphate:phosphate,0(carboxylic_acid) > 4(phosphate) > 5(phosphate)
OC(=O)C[P](O)(O)=O,7.81,0:4:5,carboxylic_acid:phosphate:phosphate,Phosphonoacetic acid,0:4:5,carboxylic_acid:phosphate:phosphate,0(carboxylic_acid) > 4(phosphate) > 5(phosphate)
OC(=O)C[P](O)(O)=O,7.23,0:4:5,carboxylic_acid:phosphate:phosphate,Phosphonoacetic acid,0:4:5,carboxylic_acid:phosphate:phosphate,0(carboxylic_acid) > 4(phosphate) > 5(phosphate)
OC(=O)C[P](O)(O)=O,8.69,0:4:5,carboxylic_acid:phosphate:phosphate,Phosphonoacetic acid,0:4:5,carboxylic_acid:phosphate:phosphate,0(carboxylic_acid) > 4(phosphate) > 5(phosphate)
OC(=O)C[P](O)(O)=O,4.78,0:4:5,carboxylic_acid:phosphate:phosphate,Phosphonoacetic acid,0:4:5,carboxylic_acid:phosphate:phosphate,0(carboxylic_acid) > 4(phosphate) > 5(phosphate)
OC(=O)C[P](O)(O)=O,4.68,0:4:5,carboxylic_acid:phosphate:phosphate,Phosphonoacetic acid,0:4:5,carboxylic_acid:phosphate:phosphate,0(carboxylic_acid) > 4(phosphate) > 5(phosphate)