SMILES,pKa,Dissociable_Atoms,Functional_Group,Name
OC(=O)c1cccc(n1)C(O)=O,4.51,0:10,carboxylic_acid:carboxylic_acid,"Pyridine-2,6-dicarboxylic acid (Dipicolinic acid)"
OC(=O)c1cccc(n1)C(O)=O,4.45,0:10,carboxylic_acid:carboxylic_acid,"Pyridine-2,6-dicarboxylic acid (Dipicolinic acid)"
OC(=O)c1cccc(n1)C(O)=O,5.09,0:10,carboxylic_acid:carboxylic_acid,"Pyridine-2,6-dicarboxylic acid (Dipicolinic acid)"
OC(=O)c1cccc(n1)C(O)=O,2.07,0:10,carboxylic_acid:carboxylic_acid,"Pyridine-2,6-dicarboxylic acid (Dipicolinic acid)"
OC(=O)c1cccc(n1)C(O)=O,2.05,0:10,carboxylic_acid:carboxylic_acid,"Pyridine-2,6-dicarboxylic acid (Dipicolinic acid)"
OC(=O)c1cccc(n1)C(O)=O,2.25,0:10,carboxylic_acid:carboxylic_acid,"Pyridine-2,6-dicarboxylic acid (Dipicolinic acid)"
OC(=O)c1ccncc1C(O)=O,4.9,6,pyridine_nitrogen,"Pyridine-3,4-dicarboxylic acid (Cinchomeronic acid)"
OC(=O)c1ccncc1C(O)=O,2.7,6,pyridine_nitrogen,"Pyridine-3,4-dicarboxylic acid (Cinchomeronic acid)"
OC(=O)c1ccncc1C(O)=O,0.6,6,pyridine_nitrogen,"Pyridine-3,4-dicarboxylic acid (Cinchomeronic acid)"
OC(=O)c1cncc(c1)C(O)=O,4.3,1:8:3,carboxylic_acid:carboxylic_acid:pyridine_nitrogen,"Pyridine-3,5-dicarboxylic acid (Dinicotinic acid)"
OC(=O)c1cncc(c1)C(O)=O,2.1,1:8:3,carboxylic_acid:carboxylic_acid:pyridine_nitrogen,"Pyridine-3,5-dicarboxylic acid (Dinicotinic acid)"
OC(=O)c1cncc(c1)C(O)=O,1.1,1:8:3,carboxylic_acid:carboxylic_acid:pyridine_nitrogen,"Pyridine-3,5-dicarboxylic acid (Dinicotinic acid)"
OC(=O)c1cc(O)c2ccccc2n1,11.0,6:0,phenol:carboxylic_acid,4-Hydroxyquinoline-2-carboxylic acid
OC(=O)c1cc(O)c2ccccc2n1,2.65,6:0,phenol:carboxylic_acid,4-Hydroxyquinoline-2-carboxylic acid
OC(=O)C1=CC(=O)C=C(N1)C(O)=O,10.88,9:0:11,amine_secondary:carboxylic_acid:carboxylic_acid,"4-Hydroxypyridine-2,6-dicarboxylic acid (Chelidamic acid)"
OC(=O)C1=CC(=O)C=C(N1)C(O)=O,3.11,9:0:11,amine_secondary:carboxylic_acid:carboxylic_acid,"4-Hydroxypyridine-2,6-dicarboxylic acid (Chelidamic acid)"
OC(=O)C1=CC(=O)C=C(N1)C(O)=O,1.4,9:0:11,amine_secondary:carboxylic_acid:carboxylic_acid,"4-Hydroxypyridine-2,6-dicarboxylic acid (Chelidamic acid)"
Nc1cc(nc(c1)C(O)=O)C(O)=O,9.05,11:8,carboxylic_acid:carboxylic_acid,"4-Aminopyridine-2,6-dicarboxylic acid"
Nc1cc(nc(c1)C(O)=O)C(O)=O,2.29,11:8,carboxylic_acid:carboxylic_acid,"4-Aminopyridine-2,6-dicarboxylic acid"
CNc1cc(nc(c1)C(O)=O)C(O)=O,9.68,12:9,carboxylic_acid:carboxylic_acid,"4-(Methylamino)pyridine-2,6-dicarboxylic acid"
CNc1cc(nc(c1)C(O)=O)C(O)=O,1.3,12:9,carboxylic_acid:carboxylic_acid,"4-(Methylamino)pyridine-2,6-dicarboxylic acid"
CN(C)c1cc(nc(c1)C(O)=O)C(O)=O,9.77,13:10,carboxylic_acid:carboxylic_acid,"4-(Dimethylamino)pyridine-2,6-dicarboxylic acid"
CN(C)c1cc(nc(c1)C(O)=O)C(O)=O,1.5,13:10,carboxylic_acid:carboxylic_acid,"4-(Dimethylamino)pyridine-2,6-dicarboxylic acid"
OC(=O)c1cc(Nc2ccccc2)cc(n1)C(O)=O,8.65,0:17,carboxylic_acid:carboxylic_acid,"4-(Phenylamino)pyridine-2,6-dicarboxylic acid"
OC(=O)c1cc(Nc2ccccc2)cc(n1)C(O)=O,1.4,0:17,carboxylic_acid:carboxylic_acid,"4-(Phenylamino)pyridine-2,6-dicarboxylic acid"
OC(=O)Cc1ccccn1,5.77,9,pyridine_nitrogen,2-Pyridylacetic acid (Pyridine-2-acetic acid)
OC(=O)Cc1ccccn1,5.78,9,pyridine_nitrogen,2-Pyridylacetic acid (Pyridine-2-acetic acid)
OC(=O)Cc1ccccn1,2.67,9,pyridine_nitrogen,2-Pyridylacetic acid (Pyridine-2-acetic acid)
OC(=O)Cc1ccccn1,2.73,9,pyridine_nitrogen,2-Pyridylacetic acid (Pyridine-2-acetic acid)
OC(=O)CCc1ccccn1,5.9,10,pyridine_nitrogen,3-(2-Pyridyl)propanoic acid
OC(=O)CCc1ccccn1,6.05,10,pyridine_nitrogen,3-(2-Pyridyl)propanoic acid
OC(=O)CCc1ccccn1,3.7,10,pyridine_nitrogen,3-(2-Pyridyl)propanoic acid
OC(=O)CCc1ccccn1,3.64,10,pyridine_nitrogen,3-(2-Pyridyl)propanoic acid
OC(=O)/C=C/c1ccccn1,4.56,10,pyridine_nitrogen,trans-3-(2-Pyridyl)propenoic acid
OC(=O)/C=C/c1ccccn1,2.83,10,pyridine_nitrogen,trans-3-(2-Pyridyl)propenoic acid
OC(=O)Cc1cccnc1,5.5,8,pyridine_nitrogen,3-Pyridylacetic acid (Pyridine-3-acetic acid)
OC(=O)Cc1cccnc1,5.58,8,pyridine_nitrogen,3-Pyridylacetic acid (Pyridine-3-acetic acid)
OC(=O)Cc1cccnc1,3.11,8,pyridine_nitrogen,3-Pyridylacetic acid (Pyridine-3-acetic acid)
OC(=O)Cc1cccnc1,3.02,8,pyridine_nitrogen,3-Pyridylacetic acid (Pyridine-3-acetic acid)
OC(=O)CCc1cccnc1,5.76,9,pyridine_nitrogen,3-(3-Pyridyl)propanoic acid
OC(=O)CCc1cccnc1,5.95,9,pyridine_nitrogen,3-(3-Pyridyl)propanoic acid
OC(=O)CCc1cccnc1,3.86,9,pyridine_nitrogen,3-(3-Pyridyl)propanoic acid
OC(=O)CCc1cccnc1,3.78,9,pyridine_nitrogen,3-(3-Pyridyl)propanoic acid
OC(=O)Cc1ccncc1,5.79,7,pyridine_nitrogen,4-Pyridylacetic acid (Pyridine-4-acetic acid)
OC(=O)Cc1ccncc1,3.0,7,pyridine_nitrogen,4-Pyridylacetic acid (Pyridine-4-acetic acid)
OC(=O)CCc1ccncc1,6.01,8,pyridine_nitrogen,3-(4-Pyridyl)propanoic acid
OC(=O)CCc1ccncc1,6.12,8,pyridine_nitrogen,3-(4-Pyridyl)propanoic acid
OC(=O)CCc1ccncc1,3.75,8,pyridine_nitrogen,3-(4-Pyridyl)propanoic acid
OC(=O)CCc1ccncc1,3.69,8,pyridine_nitrogen,3-(4-Pyridyl)propanoic acid
OC(=O)Cc1cccc(CC(O)=O)n1,6.02,22,ring_nitrogen,"Pyridine-2,6-diacetic acid"
OC(=O)Cc1cccc(CC(O)=O)n1,3.1,22,ring_nitrogen,"Pyridine-2,6-diacetic acid"
OC(=O)Cc1cccc(CC(O)=O)n1,2.35,22,ring_nitrogen,"Pyridine-2,6-diacetic acid"
OC(=O)CNCc1ccccn1,8.18,11,pyridine_nitrogen,N-(2-Pyridylmethyl)glycine
OC(=O)CNCc1ccccn1,2.46,11,pyridine_nitrogen,N-(2-Pyridylmethyl)glycine
OC(=O)CNCc1ccccn1,2.19,11,pyridine_nitrogen,N-(2-Pyridylmethyl)glycine
OC(=O)CN(CC(O)=O)Cc1ccccn1,8.2,15,pyridine_nitrogen,N-(2-Pyridylmethyl)iminodiacetic acid
OC(=O)CN(CC(O)=O)Cc1ccccn1,2.72,15,pyridine_nitrogen,N-(2-Pyridylmethyl)iminodiacetic acid
OC(=O)CN(CC(O)=O)Cc1ccccn1,2.68,15,pyridine_nitrogen,N-(2-Pyridylmethyl)iminodiacetic acid
OC(=O)CN(CC(O)=O)Cc1ccccn1,2.7,15,pyridine_nitrogen,N-(2-Pyridylmethyl)iminodiacetic acid
Cc1cccc(CN(CC(O)=O)CC(O)=O)n1,8.31,27,ring_nitrogen,N-(6-Methyl-2-pyridylmethyl)iminodiacetic acid
Cc1cccc(CN(CC(O)=O)CC(O)=O)n1,3.45,27,ring_nitrogen,N-(6-Methyl-2-pyridylmethyl)iminodiacetic acid
Cc1cccc(CN(CC(O)=O)CC(O)=O)n1,2.62,27,ring_nitrogen,N-(6-Methyl-2-pyridylmethyl)iminodiacetic acid
Cc1cccc(CN(CC(O)=O)CC(O)=O)n1,2.6,27,ring_nitrogen,N-(6-Methyl-2-pyridylmethyl)iminodiacetic acid
CCN1C=C(C(O)=O)C(=O)c2ccc(C)nc12,5.94,6,carboxylic_acid,"1-Ethyl-1,4-dihydro-7-methyl-4-oxo-1,8-naphthyridine-3-carboxylic acid (Nalidixic acid)"
CN,10.65,1,amine_primary,Methylamine
CN,10.72,1,amine_primary,Methylamine
CN,10.84,1,amine_primary,Methylamine
CN,10.8,1,amine_primary,Methylamine
CN,11.136,1,amine_primary,Methylamine
CN,10.632,1,amine_primary,Methylamine
CN,10.166,1,amine_primary,Methylamine
CCN,10.69,2,amine_primary,Ethylamine
CCN,10.72,2,amine_primary,Ethylamine
CCN,10.83,2,amine_primary,Ethylamine
CCN,10.673,2,amine_primary,Ethylamine
CCCN,10.64,3,amine_primary,Propylamine
CCCN,10.74,3,amine_primary,Propylamine
CCCN,10.78,3,amine_primary,Propylamine
CCCN,11.097,3,amine_primary,Propylamine
CCCN,10.566,3,amine_primary,Propylamine
CCCN,10.087,3,amine_primary,Propylamine
CCCCN,10.66,4,amine_primary,Butylamine
CCCCN,10.7,4,amine_primary,Butylamine
CCCCN,10.75,4,amine_primary,Butylamine
CCCCN,10.85,4,amine_primary,Butylamine
CCCCN,11.08,4,amine_primary,Butylamine
CCCCN,11.177,4,amine_primary,Butylamine
CCCCN,10.64,4,amine_primary,Butylamine
CCCCN,10.15,4,amine_primary,Butylamine
CCCCCN,10.63,5,amine_primary,Pentylamine
CCCCCN,10.75,5,amine_primary,Pentylamine
CCCCCN,10.597,5,amine_primary,Pentylamine
CCCCCCN,10.64,6,amine_primary,Hexylamine
CCCCCCN,10.63,6,amine_primary,Hexylamine
CC(C)N,10.61,3,amine_primary,2-Propylamine (Isopropylamine)
CC(C)N,10.63,3,amine_primary,2-Propylamine (Isopropylamine)
CC(C)N,10.72,3,amine_primary,2-Propylamine (Isopropylamine)
CC(C)N,10.67,3,amine_primary,2-Propylamine (Isopropylamine)
CCC(C)N,10.56,4,amine_primary,DL-2-Butylamine (s-Butylamine)
CCC(C)N,10.57,4,amine_primary,DL-2-Butylamine (s-Butylamine)
CC(C)CN,10.57,4,amine_primary,2-Methylpropylamine (Isobutylamine)
CC(C)CN,10.48,4,amine_primary,2-Methylpropylamine (Isobutylamine)
CCC(N)CC,10.41,3,amine_primary,3-Pentylamine
CCC(N)CC,10.52,3,amine_primary,3-Pentylamine
CC(C)CCN,10.64,5,amine_primary,3-Methylbutylamine (Isopentylamine)
CC(C)(C)N,10.65,4,amine_primary,2-Methyl-2-propylamine (t-Butylamine)
CC(C)(C)N,10.67,4,amine_primary,2-Methyl-2-propylamine (t-Butylamine)
CC(C)(C)N,10.72,4,amine_primary,2-Methyl-2-propylamine (t-Butylamine)
CC(C)(C)N,11.048,4,amine_primary,2-Methyl-2-propylamine (t-Butylamine)
CC(C)(C)N,10.685,4,amine_primary,2-Methyl-2-propylamine (t-Butylamine)
CC(C)(C)N,10.341,4,amine_primary,2-Methyl-2-propylamine (t-Butylamine)
NC1CCCC1,10.63,0,amine_primary,Cyclopentylamine
NC1CCCC1,10.65,0,amine_primary,Cyclopentylamine
NC1CCCCC1,10.62,0,amine_primary,Cyclohexylamine
NC1CCCCC1,10.567,0,amine_primary,Cyclohexylamine
NCC1CCCCC1,10.7,0,amine_primary,Cyclohexylmethylamine
[Cl-].NC12CC3CC(CC(C3)C1)C2.[H+],10.55,1,amine_primary,"Tricyclo[3.3.1.1(3,7)]decan-1-amine (Amantadine)"
NCC=C,9.52,0,amine_primary,Prop-2-enylamine (Allylamine)
NCC#N,5.15,4,nitrile,Cyanomethylamine
NCC#N,5.17,4,nitrile,Cyanomethylamine
NCc1ccccc1,9.4,0,amine_primary,Benzylamine (Phenylmethylamine)
NCc1ccccc1,9.44,0,amine_primary,Benzylamine (Phenylmethylamine)
NCc1ccccc1,9.46,0,amine_primary,Benzylamine (Phenylmethylamine)
NCc1ccccc1,9.35,0,amine_primary,Benzylamine (Phenylmethylamine)
Cc1ccc(CN)cc1,9.51,6,amine_primary,4-Methylbenzylamine
NCc1ccc(cc1)C(F)(F)F,8.84,0,amine_primary,4-(Trifluoromethyl)benzylamine
NCc1ccc(cc1)C#N,8.61,14,nitrile,4-Cyanobenzylamine
NCCc1ccccc1,9.92,0,amine_primary,2-Phenylethylamine
NCCc1ccccc1,10.06,0,amine_primary,2-Phenylethylamine
NCCCc1ccccc1,10.32,0,amine_primary,3-Phenylpropylamine
NCCCc1ccccc1,10.36,0,amine_primary,3-Phenylpropylamine
NCCCCc1ccccc1,10.42,0,amine_primary,4-Phenylbutylamine
NCCCCc1ccccc1,10.61,0,amine_primary,4-Phenylbutylamine
NCCCCCc1ccccc1,10.55,0,amine_primary,5-Phenylpentylamine
NCC[S](O)(=O)=O,8.9,0:4,amine_primary:alcohol,2-Aminoethanesulfonic acid (Taurine)
NCC[S](O)(=O)=O,8.8,0:4,amine_primary:alcohol,2-Aminoethanesulfonic acid (Taurine)
NCC[S](O)(=O)=O,9.316,0:4,amine_primary:alcohol,2-Aminoethanesulfonic acid (Taurine)
NCC[S](O)(=O)=O,9.061,0:4,amine_primary:alcohol,2-Aminoethanesulfonic acid (Taurine)
NCC[S](O)(=O)=O,8.823,0:4,amine_primary:alcohol,2-Aminoethanesulfonic acid (Taurine)
NCC[S](O)(=O)=O,0.33,0:4,amine_primary:alcohol,2-Aminoethanesulfonic acid (Taurine)
NCCC[S](O)(=O)=O,9.74,0,amine_primary,3-Aminopropanesulfonic acid
NCCCC[S](O)(=O)=O,10.24,0,amine_primary,4-Aminobutanesulfonic acid
NCCCCC[S](O)(=O)=O,10.46,0,amine_primary,5-Aminopentanesulfonic acid
NCCc1ccccc1O,9.27,0:9,amine_primary:phenol,2-(2-Aminoethyl)phenol
NCCc1cccc(O)c1,10.47,0:8,amine_primary:phenol,3-(2-Aminoethyl)phenol
NCCc1cccc(O)c1,10.3,0:8,amine_primary:phenol,3-(2-Aminoethyl)phenol
NCCc1cccc(O)c1,9.34,0:8,amine_primary:phenol,3-(2-Aminoethyl)phenol
NCCc1cccc(O)c1,9.28,0:8,amine_primary:phenol,3-(2-Aminoethyl)phenol
NCCc1ccc(O)cc1,10.52,0:7,amine_primary:phenol,4-(2-Aminoethyl)phenol (Tyramine)
NCCc1ccc(O)cc1,10.41,0:7,amine_primary:phenol,4-(2-Aminoethyl)phenol (Tyramine)
NCCc1ccc(O)cc1,10.57,0:7,amine_primary:phenol,4-(2-Aminoethyl)phenol (Tyramine)
NCCc1ccc(O)cc1,9.43,0:7,amine_primary:phenol,4-(2-Aminoethyl)phenol (Tyramine)
NCCc1ccc(O)cc1,9.33,0:7,amine_primary:phenol,4-(2-Aminoethyl)phenol (Tyramine)
NCCc1ccc(O)cc1,9.45,0:7,amine_primary:phenol,4-(2-Aminoethyl)phenol (Tyramine)
NC[C@H](O)c1ccc(O)cc1,9.88,0:8,amine_primary:phenol,DL-2-Amino-1-(4-hydroxyphenyl)ethanol (Octopamine)
NC[C@H](O)c1ccc(O)cc1,9.94,0:8,amine_primary:phenol,DL-2-Amino-1-(4-hydroxyphenyl)ethanol (Octopamine)
NC[C@H](O)c1ccc(O)cc1,8.8,0:8,amine_primary:phenol,DL-2-Amino-1-(4-hydroxyphenyl)ethanol (Octopamine)
NC[C@H](O)c1ccc(O)cc1,8.89,0:8,amine_primary:phenol,DL-2-Amino-1-(4-hydroxyphenyl)ethanol (Octopamine)
N[C@H](CO)Cc1ccc(O)cc1,9.98,0:9,amine_primary:phenol,DL-2-Amino-3-(4-hydroxyphenyl)propanol (Tyrosinol)
N[C@H](CO)Cc1ccc(O)cc1,8.94,0:9,amine_primary:phenol,DL-2-Amino-3-(4-hydroxyphenyl)propanol (Tyrosinol)
COc1cc(CCN)ccc1O,10.47,7:11,amine_primary:phenol,4-(2-Aminoethyl)-2-methoxyphenol
COc1cc(CCN)ccc1O,9.34,7:11,amine_primary:phenol,4-(2-Aminoethyl)-2-methoxyphenol
COc1ccc(CCN)cc1O,10.38,8:11,amine_primary:phenol,5-(2-Aminoethyl)-2-methoxyphenol
COc1ccc(CCN)cc1O,9.23,8:11,amine_primary:phenol,5-(2-Aminoethyl)-2-methoxyphenol
COC(=O)C(N)Cc1ccc(O)cc1,9.89,5:11,amine_primary:phenol,DL-Tyrosine methyl ester
COC(=O)C(N)Cc1ccc(O)cc1,7.09,5:11,amine_primary:phenol,DL-Tyrosine methyl ester
CCOC(=O)[C@@H](N)Cc1ccc(O)cc1,9.68,6:12,amine_primary:phenol,L-Tyrosine ethyl ester
CCOC(=O)[C@@H](N)Cc1ccc(O)cc1,9.71,6:12,amine_primary:phenol,L-Tyrosine ethyl ester
CCOC(=O)[C@@H](N)Cc1ccc(O)cc1,7.21,6:12,amine_primary:phenol,L-Tyrosine ethyl ester
CCOC(=O)[C@@H](N)Cc1ccc(O)cc1,7.37,6:12,amine_primary:phenol,L-Tyrosine ethyl ester
N[C@@H](Cc1ccc(O)cc1)C(N)=O,9.83,0:11,amine_primary:amine_primary,L-Tyrosinamide
N[C@@H](Cc1ccc(O)cc1)C(N)=O,7.42,0:11,amine_primary:amine_primary,L-Tyrosinamide
CNC(=O)[C@H](Cc1ccc(O)cc1)NC(=O)CNC(=O)CN,9.85,21:1,amine_primary:amine_secondary,Glycylglycyl-L-tyrosine methylamide
CNC(=O)[C@H](Cc1ccc(O)cc1)NC(=O)CNC(=O)CN,7.94,21:1,amine_primary:amine_secondary,Glycylglycyl-L-tyrosine methylamide
CNC(=O)[C@H](CCSC)NC(=O)[C@H](Cc1ccccc1)NC(=O)CNC(=O)CNC(=O)[C@@H](N)Cc2ccc(O)cc2,9.78,32:1,amine_primary:amine_secondary,L-Tyrosylglycylglycyl-L-phenylalanyl-L-methionine methylamide
CNC(=O)[C@H](CCSC)NC(=O)[C@H](Cc1ccccc1)NC(=O)CNC(=O)CNC(=O)[C@@H](N)Cc2ccc(O)cc2,7.01,32:1,amine_primary:amine_secondary,L-Tyrosylglycylglycyl-L-phenylalanyl-L-methionine methylamide
NCCc1ccc(O)c(O)c1,13.1,0:7:9,amine_primary:phenol:phenol,"2-(3,4-Dihydroxyphenyl)ethylamine (Dopamine)"
NCCc1ccc(O)c(O)c1,13.4,0:7:9,amine_primary:phenol:phenol,"2-(3,4-Dihydroxyphenyl)ethylamine (Dopamine)"
NCCc1ccc(O)c(O)c1,10.41,0:7:9,amine_primary:phenol:phenol,"2-(3,4-Dihydroxyphenyl)ethylamine (Dopamine)"
NCCc1ccc(O)c(O)c1,10.6,0:7:9,amine_primary:phenol:phenol,"2-(3,4-Dihydroxyphenyl)ethylamine (Dopamine)"
NCCc1ccc(O)c(O)c1,10.48,0:7:9,amine_primary:phenol:phenol,"2-(3,4-Dihydroxyphenyl)ethylamine (Dopamine)"
NCCc1ccc(O)c(O)c1,10.52,0:7:9,amine_primary:phenol:phenol,"2-(3,4-Dihydroxyphenyl)ethylamine (Dopamine)"
NCCc1ccc(O)c(O)c1,8.88,0:7:9,amine_primary:phenol:phenol,"2-(3,4-Dihydroxyphenyl)ethylamine (Dopamine)"
NCCc1ccc(O)c(O)c1,9.06,0:7:9,amine_primary:phenol:phenol,"2-(3,4-Dihydroxyphenyl)ethylamine (Dopamine)"
NCCc1ccc(O)c(O)c1,8.93,0:7:9,amine_primary:phenol:phenol,"2-(3,4-Dihydroxyphenyl)ethylamine (Dopamine)"
NCCc1ccc(O)c(O)c1,9.0,0:7:9,amine_primary:phenol:phenol,"2-(3,4-Dihydroxyphenyl)ethylamine (Dopamine)"
NCC(O)c1ccc(O)c(O)c1,12.9,0:8:10,amine_primary:phenol:phenol,"L-2-Amino-1-(3,4-Dihydroxyphenyl)ethanol (Noradrenaline) (Norepinephrine)"
NCC(O)c1ccc(O)c(O)c1,9.62,0:8:10,amine_primary:phenol:phenol,"L-2-Amino-1-(3,4-Dihydroxyphenyl)ethanol (Noradrenaline) (Norepinephrine)"
NCC(O)c1ccc(O)c(O)c1,9.59,0:8:10,amine_primary:phenol:phenol,"L-2-Amino-1-(3,4-Dihydroxyphenyl)ethanol (Noradrenaline) (Norepinephrine)"
NCC(O)c1ccc(O)c(O)c1,9.73,0:8:10,amine_primary:phenol:phenol,"L-2-Amino-1-(3,4-Dihydroxyphenyl)ethanol (Noradrenaline) (Norepinephrine)"
NCC(O)c1ccc(O)c(O)c1,8.61,0:8:10,amine_primary:phenol:phenol,"L-2-Amino-1-(3,4-Dihydroxyphenyl)ethanol (Noradrenaline) (Norepinephrine)"
NCC(O)c1ccc(O)c(O)c1,8.73,0:8:10,amine_primary:phenol:phenol,"L-2-Amino-1-(3,4-Dihydroxyphenyl)ethanol (Noradrenaline) (Norepinephrine)"
NCC(O)c1ccc(O)c(O)c1,8.57,0:8:10,amine_primary:phenol:phenol,"L-2-Amino-1-(3,4-Dihydroxyphenyl)ethanol (Noradrenaline) (Norepinephrine)"
NCCO,9.52,0,amine_primary,2-Aminoethanol (Ethanolamine)
NCCO,9.62,0,amine_primary,2-Aminoethanol (Ethanolamine)
NCCO,9.79,0,amine_primary,2-Aminoethanol (Ethanolamine)
NCCO,10.04,0,amine_primary,2-Aminoethanol (Ethanolamine)
NCCO,9.806,0,amine_primary,2-Aminoethanol (Ethanolamine)
NCCO,9.499,0,amine_primary,2-Aminoethanol (Ethanolamine)
NCCO,9.208,0,amine_primary,2-Aminoethanol (Ethanolamine)
CC(O)CN,9.49,4,amine_primary,DL-1-Amino-2-propanol
CC(O)CN,9.6,4,amine_primary,DL-1-Amino-2-propanol
CC(O)CN,9.74,4,amine_primary,DL-1-Amino-2-propanol
CC(O)CN,10.02,4,amine_primary,DL-1-Amino-2-propanol
CC(O)CN,9.932,4,amine_primary,DL-1-Amino-2-propanol
CC(O)CN,9.464,4,amine_primary,DL-1-Amino-2-propanol
CC(O)CN,9.041,4,amine_primary,DL-1-Amino-2-propanol
NCCCO,10.11,0,amine_primary,3-Aminopropanol
NCCCO,10.23,0,amine_primary,3-Aminopropanol
NCCCO,10.41,0,amine_primary,3-Aminopropanol
NCCCO,10.65,0,amine_primary,3-Aminopropanol
NCCCO,10.088,0,amine_primary,3-Aminopropanol
NCCCCO,10.38,0,amine_primary,4-Aminobutanol
NCCCCO,10.61,0,amine_primary,4-Aminobutanol
NCCCCCO,10.91,0,amine_primary,5-Aminopentanol
NCCCCCO,10.61,0,amine_primary,5-Aminopentanol
NCCCCCCO,10.81,0,amine_primary,6-Aminohexanol
CC(C)(N)CO,9.72,3,amine_primary,2-Amino-2-methylpropanol
CC(C)(N)CO,9.81,3,amine_primary,2-Amino-2-methylpropanol
CC(C)(N)CO,9.93,3,amine_primary,2-Amino-2-methylpropanol
CC(C)(N)CO,10.16,3,amine_primary,2-Amino-2-methylpropanol
CC(C)(N)CO,10.194,3,amine_primary,2-Amino-2-methylpropanol
CC(C)(N)CO,9.694,3,amine_primary,2-Amino-2-methylpropanol
CC(C)(N)CO,9.24,3,amine_primary,2-Amino-2-methylpropanol
NCC(O)c1ccccc1,8.79,0,amine_primary,DL-2-Amino-1-phenylethanol
COC(=O)C(N)CO,7.07,5,amine_primary,DL-Serine methyl ester
COC(=O)C(N)CO,7.03,5,amine_primary,DL-Serine methyl ester
NCC(O)CO,9.26,0,amine_primary,"3-Amino-1,2-propanediol"
NC(CO)(CO)CO,8.1,0,amine_primary,"2-Amino-2-hydroxymethyl-1,3-propanediol (THAM)(TRIS)"
NC(CO)(CO)CO,7.77,0,amine_primary,"2-Amino-2-hydroxymethyl-1,3-propanediol (THAM)(TRIS)"
NC(CO)(CO)CO,8.18,0,amine_primary,"2-Amino-2-hydroxymethyl-1,3-propanediol (THAM)(TRIS)"
NC(CO)(CO)CO,8.21,0,amine_primary,"2-Amino-2-hydroxymethyl-1,3-propanediol (THAM)(TRIS)"
NC(CO)(CO)CO,8.25,0,amine_primary,"2-Amino-2-hydroxymethyl-1,3-propanediol (THAM)(TRIS)"
NC(CO)(CO)CO,8.29,0,amine_primary,"2-Amino-2-hydroxymethyl-1,3-propanediol (THAM)(TRIS)"
NC(CO)(CO)CO,8.32,0,amine_primary,"2-Amino-2-hydroxymethyl-1,3-propanediol (THAM)(TRIS)"
NC(CO)(CO)CO,8.4,0,amine_primary,"2-Amino-2-hydroxymethyl-1,3-propanediol (THAM)(TRIS)"
NC(CO)(CO)CO,8.41,0,amine_primary,"2-Amino-2-hydroxymethyl-1,3-propanediol (THAM)(TRIS)"
NC(CO)(CO)CO,8.44,0,amine_primary,"2-Amino-2-hydroxymethyl-1,3-propanediol (THAM)(TRIS)"
NC(CO)(CO)CO,8.63,0,amine_primary,"2-Amino-2-hydroxymethyl-1,3-propanediol (THAM)(TRIS)"
NC(CO)(CO)CO,8.67,0,amine_primary,"2-Amino-2-hydroxymethyl-1,3-propanediol (THAM)(TRIS)"
NC(CO)(CO)CO,8.79,0,amine_primary,"2-Amino-2-hydroxymethyl-1,3-propanediol (THAM)(TRIS)"
NC(CO)(CO)CO,8.94,0,amine_primary,"2-Amino-2-hydroxymethyl-1,3-propanediol (THAM)(TRIS)"
NC(CO)(CO)CO,9.0,0,amine_primary,"2-Amino-2-hydroxymethyl-1,3-propanediol (THAM)(TRIS)"
NC(CO)(CO)CO,9.13,0,amine_primary,"2-Amino-2-hydroxymethyl-1,3-propanediol (THAM)(TRIS)"
NC(CO)(CO)CO,8.516,0,amine_primary,"2-Amino-2-hydroxymethyl-1,3-propanediol (THAM)(TRIS)"
NC(CO)(CO)CO,8.074,0,amine_primary,"2-Amino-2-hydroxymethyl-1,3-propanediol (THAM)(TRIS)"
NC(CO)(CO)CO,7.677,0,amine_primary,"2-Amino-2-hydroxymethyl-1,3-propanediol (THAM)(TRIS)"
N[C@H]1C(O)O[C@H](CO)[C@@H](O)[C@@H]1O,7.58,0,amine_primary,2-Amino-2-deoxy-D-glucopyranose (D-Glucosamine)
N[C@H]1C(O)O[C@H](CO)[C@@H](O)[C@@H]1O,7.42,0,amine_primary,2-Amino-2-deoxy-D-glucopyranose (D-Glucosamine)
N[C@H]1C(O)O[C@H](CO)[C@@H](O)[C@@H]1O,7.27,0,amine_primary,2-Amino-2-deoxy-D-glucopyranose (D-Glucosamine)
N[C@H]1C(O)O[C@H](CO)[C@H](O)[C@@H]1O,7.72,0,amine_primary,D-Galactosamine
N[C@H]1C(O)O[C@H](CO)[C@H](O)[C@@H]1O,7.61,0,amine_primary,D-Galactosamine
N[C@@H]1C(O)O[C@H](CO)[C@@H](O)[C@@H]1O,7.57,0,amine_primary,D-Mannosamine
N[C@@H]1C(O)O[C@H](CO)[C@@H](O)[C@@H]1O,7.5,0,amine_primary,D-Mannosamine
CON,4.62,2,amine_primary,Methoxyamine
CON,4.74,2,amine_primary,Methoxyamine
COCCN,9.45,4,amine_primary,2-Methoxyethylamine
COCCN,9.62,4,amine_primary,2-Methoxyethylamine
COCCN,9.43,4,amine_primary,2-Methoxyethylamine
NCCOCCO,9.42,0,amine_primary,2-(2-Aminoethoxy)ethanol (Diglycolamine)