SMILES,pKa,Dissociable_Atoms,Functional_Group,Name,Dissociable_Atoms_Ordered,Functional_Group_Ordered,Dissociation_Order
[O-][NH+]1CCCNCCNC(=O)C(CCc2ccccn2)C(=O)NCC1,5.22,1:5,amine_secondary:amine_secondary,"5,7-Dioxo-6-[2-(2-pyridyl)ethyl]-1,4,8,11-tetraazacyclotetradecane-N-oxide",1:5,amine_secondary:amine_secondary,1(amine_secondary) > 5(amine_secondary)
O=C1CC(=O)NCCN(CCCN(CCN1)CCC#N)CCC#N,5.94,5:15,amine_secondary:amine_secondary,"1,11-Bis(2-cyanoethyl)-5,7-dioxo-1,4,8,11-tetraazacyclotetradecane",5:15,amine_secondary:amine_secondary,5(amine_secondary) > 15(amine_secondary)
O=C1CC(=O)NCCN(CCCN(CCN1)CCC#N)CCC#N,3.05,5:15,amine_secondary:amine_secondary,"1,11-Bis(2-cyanoethyl)-5,7-dioxo-1,4,8,11-tetraazacyclotetradecane",5:15,amine_secondary:amine_secondary,5(amine_secondary) > 15(amine_secondary)
O=C1CC(=O)NCCCNCCNCCCN1,9.28,5:9,amine_secondary:amine_secondary,"9,11-Dioxo-1,4,8,12-tetraazacyclopentadecane",5:9,amine_secondary:amine_secondary,5(amine_secondary) > 9(amine_secondary)
O=C1CC(=O)NCCCNCCNCCCN1,6.4,5:9,amine_secondary:amine_secondary,"9,11-Dioxo-1,4,8,12-tetraazacyclopentadecane",5:9,amine_secondary:amine_secondary,5(amine_secondary) > 9(amine_secondary)
O=C1NCCCNCCNCCCNC(=O)C1CCc2ccccc2,9.27,2:6,amine_secondary:amine_secondary,"9,11-Dioxo-10-(2-phenylethyl)-1,4,8,12-tetraazacyclopentadecane",2:6,amine_secondary:amine_secondary,2(amine_secondary) > 6(amine_secondary)
O=C1NCCCNCCNCCCNC(=O)C1CCc2ccccc2,6.21,2:6,amine_secondary:amine_secondary,"9,11-Dioxo-10-(2-phenylethyl)-1,4,8,12-tetraazacyclopentadecane",2:6,amine_secondary:amine_secondary,2(amine_secondary) > 6(amine_secondary)
O=C1NCCCNCCNCCCNC(=O)C1CCc2ccccn2,9.32,2:6:9,amine_secondary:amine_secondary:amine_secondary,"9,11-Dioxo-10-[2-(2-pyridyl)ethyl]-1,4,8,12-tetraazacyclopentadecane",2:6:9,amine_secondary:amine_secondary:amine_secondary,2(amine_secondary) > 6(amine_secondary) > 9(amine_secondary)
O=C1NCCCNCCNCCCNC(=O)C1CCc2ccccn2,6.33,2:6:9,amine_secondary:amine_secondary:amine_secondary,"9,11-Dioxo-10-[2-(2-pyridyl)ethyl]-1,4,8,12-tetraazacyclopentadecane",2:6:9,amine_secondary:amine_secondary:amine_secondary,2(amine_secondary) > 6(amine_secondary) > 9(amine_secondary)
O=C1NCCCNCCNCCCNC(=O)C1CCc2ccccn2,5.23,2:6:9,amine_secondary:amine_secondary:amine_secondary,"9,11-Dioxo-10-[2-(2-pyridyl)ethyl]-1,4,8,12-tetraazacyclopentadecane",2:6:9,amine_secondary:amine_secondary:amine_secondary,2(amine_secondary) > 6(amine_secondary) > 9(amine_secondary)
O=C1CC(=O)NCCCNCCCNCCCN1,9.58,5:9,amine_secondary:amine_secondary,"2,4-Dioxo-1,5,9,13-tetraazacyclohexadecane",5:9,amine_secondary:amine_secondary,5(amine_secondary) > 9(amine_secondary)
O=C1CC(=O)NCCCNCCCNCCCN1,7.93,5:9,amine_secondary:amine_secondary,"2,4-Dioxo-1,5,9,13-tetraazacyclohexadecane",5:9,amine_secondary:amine_secondary,5(amine_secondary) > 9(amine_secondary)
O=C1CC(=O)NCCNCCCCCNCCN1,10.3,5:8,amine_secondary:amine_secondary,"5,7-Dioxo-1,4,8,11-tetraazacyclohexadecane",5:8,amine_secondary:amine_secondary,5(amine_secondary) > 8(amine_secondary)
O=C1CC(=O)NCCNCCCCCNCCN1,8.53,5:8,amine_secondary:amine_secondary,"5,7-Dioxo-1,4,8,11-tetraazacyclohexadecane",5:8,amine_secondary:amine_secondary,5(amine_secondary) > 8(amine_secondary)
ON1CCOCCOCCN(O)C(=O)CCNCCOCCOCCNCCC1=O,9.86,0:11:16:25,alcohol:alcohol:amine_secondary:amine_secondary,"7,24-Dihydroxy-8,23-dioxo-1,4,14,17-tetraoxa-7,11,20,24-tetraazacyclohexacosane",16:25:0:11,amine_secondary:amine_secondary:alcohol:alcohol,16(amine_secondary) > 25(amine_secondary) > 0(alcohol) > 11(alcohol)
ON1CCOCCOCCN(O)C(=O)CCNCCOCCOCCNCCC1=O,9.21,0:11:16:25,alcohol:alcohol:amine_secondary:amine_secondary,"7,24-Dihydroxy-8,23-dioxo-1,4,14,17-tetraoxa-7,11,20,24-tetraazacyclohexacosane",16:25:0:11,amine_secondary:amine_secondary:alcohol:alcohol,16(amine_secondary) > 25(amine_secondary) > 0(alcohol) > 11(alcohol)
ON1CCOCCOCCN(O)C(=O)CCNCCOCCOCCNCCC1=O,7.7,0:11:16:25,alcohol:alcohol:amine_secondary:amine_secondary,"7,24-Dihydroxy-8,23-dioxo-1,4,14,17-tetraoxa-7,11,20,24-tetraazacyclohexacosane",16:25:0:11,amine_secondary:amine_secondary:alcohol:alcohol,16(amine_secondary) > 25(amine_secondary) > 0(alcohol) > 11(alcohol)
ON1CCOCCOCCN(O)C(=O)CCNCCOCCOCCNCCC1=O,4.14,0:11:16:25,alcohol:alcohol:amine_secondary:amine_secondary,"7,24-Dihydroxy-8,23-dioxo-1,4,14,17-tetraoxa-7,11,20,24-tetraazacyclohexacosane",16:25:0:11,amine_secondary:amine_secondary:alcohol:alcohol,16(amine_secondary) > 25(amine_secondary) > 0(alcohol) > 11(alcohol)
O=C1CCNCCNCCNCCNCCN1,9.88,4:7:10:13,amine_secondary:amine_secondary:amine_secondary:amine_secondary,"14-Oxo-1,4,7,10,13-pentaazacyclohexadecane",4:7:10:13,amine_secondary:amine_secondary:amine_secondary:amine_secondary,4(amine_secondary) > 7(amine_secondary) > 10(amine_secondary) > 13(amine_secondary)
O=C1CCNCCNCCNCCNCCN1,9.56,4:7:10:13,amine_secondary:amine_secondary:amine_secondary:amine_secondary,"14-Oxo-1,4,7,10,13-pentaazacyclohexadecane",4:7:10:13,amine_secondary:amine_secondary:amine_secondary:amine_secondary,4(amine_secondary) > 7(amine_secondary) > 10(amine_secondary) > 13(amine_secondary)
O=C1CCNCCNCCNCCNCCN1,8.92,4:7:10:13,amine_secondary:amine_secondary:amine_secondary:amine_secondary,"14-Oxo-1,4,7,10,13-pentaazacyclohexadecane",4:7:10:13,amine_secondary:amine_secondary:amine_secondary:amine_secondary,4(amine_secondary) > 7(amine_secondary) > 10(amine_secondary) > 13(amine_secondary)
O=C1CCNCCNCCNCCNCCN1,8.53,4:7:10:13,amine_secondary:amine_secondary:amine_secondary:amine_secondary,"14-Oxo-1,4,7,10,13-pentaazacyclohexadecane",4:7:10:13,amine_secondary:amine_secondary:amine_secondary:amine_secondary,4(amine_secondary) > 7(amine_secondary) > 10(amine_secondary) > 13(amine_secondary)
O=C1CCNCCNCCNCCNCCN1,5.85,4:7:10:13,amine_secondary:amine_secondary:amine_secondary:amine_secondary,"14-Oxo-1,4,7,10,13-pentaazacyclohexadecane",4:7:10:13,amine_secondary:amine_secondary:amine_secondary:amine_secondary,4(amine_secondary) > 7(amine_secondary) > 10(amine_secondary) > 13(amine_secondary)
O=C1CCNCCNCCNCCNCCN1,5.59,4:7:10:13,amine_secondary:amine_secondary:amine_secondary:amine_secondary,"14-Oxo-1,4,7,10,13-pentaazacyclohexadecane",4:7:10:13,amine_secondary:amine_secondary:amine_secondary:amine_secondary,4(amine_secondary) > 7(amine_secondary) > 10(amine_secondary) > 13(amine_secondary)
O=C1CCNCCNCCNCCNCCN1,2.4,4:7:10:13,amine_secondary:amine_secondary:amine_secondary:amine_secondary,"14-Oxo-1,4,7,10,13-pentaazacyclohexadecane",4:7:10:13,amine_secondary:amine_secondary:amine_secondary:amine_secondary,4(amine_secondary) > 7(amine_secondary) > 10(amine_secondary) > 13(amine_secondary)
O=C1CNCC(=O)NCCNCCNCCN1,8.94,3:7:10,amine_secondary:amine_secondary:amine_secondary,"2,6-Dioxo-1,4,7,10,13-pentaazacyclopentadecane",3:7:10,amine_secondary:amine_secondary:amine_secondary,3(amine_secondary) > 7(amine_secondary) > 10(amine_secondary)
O=C1CNCC(=O)NCCNCCNCCN1,5.03,3:7:10,amine_secondary:amine_secondary:amine_secondary,"2,6-Dioxo-1,4,7,10,13-pentaazacyclopentadecane",3:7:10,amine_secondary:amine_secondary:amine_secondary,3(amine_secondary) > 7(amine_secondary) > 10(amine_secondary)
O=C1CNCC(=O)NCCNCCNCCN1,4.22,3:7:10,amine_secondary:amine_secondary:amine_secondary,"2,6-Dioxo-1,4,7,10,13-pentaazacyclopentadecane",3:7:10,amine_secondary:amine_secondary:amine_secondary,3(amine_secondary) > 7(amine_secondary) > 10(amine_secondary)
O=C1CNCC(=O)NCCCNCCNCCCN1,9.41,3:7:11,amine_secondary:amine_secondary:amine_secondary,"2,6-Dioxo-1,4,7,11,14-pentaazacycloheptadecane",3:7:11,amine_secondary:amine_secondary:amine_secondary,3(amine_secondary) > 7(amine_secondary) > 11(amine_secondary)
O=C1CNCC(=O)NCCCNCCNCCCN1,6.39,3:7:11,amine_secondary:amine_secondary:amine_secondary,"2,6-Dioxo-1,4,7,11,14-pentaazacycloheptadecane",3:7:11,amine_secondary:amine_secondary:amine_secondary,3(amine_secondary) > 7(amine_secondary) > 11(amine_secondary)
O=C1CNCC(=O)NCCCNCCNCCCN1,5.1,3:7:11,amine_secondary:amine_secondary:amine_secondary,"2,6-Dioxo-1,4,7,11,14-pentaazacycloheptadecane",3:7:11,amine_secondary:amine_secondary:amine_secondary,3(amine_secondary) > 7(amine_secondary) > 11(amine_secondary)
O=C1CC(=O)NCCNCCNCCNCCN1,9.4,5:8:11,amine_secondary:amine_secondary:amine_secondary,"14,16-Dioxo-1,4,7,10,13-pentaazacyclohexadecane",5:8:11,amine_secondary:amine_secondary:amine_secondary,5(amine_secondary) > 8(amine_secondary) > 11(amine_secondary)
O=C1CC(=O)NCCNCCNCCNCCN1,8.89,5:8:11,amine_secondary:amine_secondary:amine_secondary,"14,16-Dioxo-1,4,7,10,13-pentaazacyclohexadecane",5:8:11,amine_secondary:amine_secondary:amine_secondary,5(amine_secondary) > 8(amine_secondary) > 11(amine_secondary)
O=C1CC(=O)NCCNCCNCCNCCN1,8.22,5:8:11,amine_secondary:amine_secondary:amine_secondary,"14,16-Dioxo-1,4,7,10,13-pentaazacyclohexadecane",5:8:11,amine_secondary:amine_secondary:amine_secondary,5(amine_secondary) > 8(amine_secondary) > 11(amine_secondary)
O=C1CC(=O)NCCNCCNCCNCCN1,8.57,5:8:11,amine_secondary:amine_secondary:amine_secondary,"14,16-Dioxo-1,4,7,10,13-pentaazacyclohexadecane",5:8:11,amine_secondary:amine_secondary:amine_secondary,5(amine_secondary) > 8(amine_secondary) > 11(amine_secondary)
O=C1CC(=O)NCCNCCNCCNCCN1,2.29,5:8:11,amine_secondary:amine_secondary:amine_secondary,"14,16-Dioxo-1,4,7,10,13-pentaazacyclohexadecane",5:8:11,amine_secondary:amine_secondary:amine_secondary,5(amine_secondary) > 8(amine_secondary) > 11(amine_secondary)
CC1C(=O)NCCNCCNCCNCCNC1=O,9.08,4:7,amine_secondary:amine_secondary,"14,16-Dioxo-15-methyl-1,4,7,10,13-pentaazacyclohexadecane",4:7,amine_secondary:amine_secondary,4(amine_secondary) > 7(amine_secondary)
CC1C(=O)NCCNCCNCCNCCNC1=O,7.95,4:7,amine_secondary:amine_secondary,"14,16-Dioxo-15-methyl-1,4,7,10,13-pentaazacyclohexadecane",4:7,amine_secondary:amine_secondary,4(amine_secondary) > 7(amine_secondary)
CCC1C(=O)NCCNCCNCCNCCNC1=O,9.31,5:8:11,amine_secondary:amine_secondary:amine_secondary,"14,16-Dioxo-15-ethyl-1,4,7,10,13-pentaazacyclohexadecane",5:8:11,amine_secondary:amine_secondary:amine_secondary,5(amine_secondary) > 8(amine_secondary) > 11(amine_secondary)
CCC1C(=O)NCCNCCNCCNCCNC1=O,9.05,5:8:11,amine_secondary:amine_secondary:amine_secondary,"14,16-Dioxo-15-ethyl-1,4,7,10,13-pentaazacyclohexadecane",5:8:11,amine_secondary:amine_secondary:amine_secondary,5(amine_secondary) > 8(amine_secondary) > 11(amine_secondary)
CCC1C(=O)NCCNCCNCCNCCNC1=O,7.98,5:8:11,amine_secondary:amine_secondary:amine_secondary,"14,16-Dioxo-15-ethyl-1,4,7,10,13-pentaazacyclohexadecane",5:8:11,amine_secondary:amine_secondary:amine_secondary,5(amine_secondary) > 8(amine_secondary) > 11(amine_secondary)
CCC1C(=O)NCCNCCNCCNCCNC1=O,7.88,5:8:11,amine_secondary:amine_secondary:amine_secondary,"14,16-Dioxo-15-ethyl-1,4,7,10,13-pentaazacyclohexadecane",5:8:11,amine_secondary:amine_secondary:amine_secondary,5(amine_secondary) > 8(amine_secondary) > 11(amine_secondary)
CCC1C(=O)NCCNCCNCCNCCNC1=O,2.0,5:8:11,amine_secondary:amine_secondary:amine_secondary,"14,16-Dioxo-15-ethyl-1,4,7,10,13-pentaazacyclohexadecane",5:8:11,amine_secondary:amine_secondary:amine_secondary,5(amine_secondary) > 8(amine_secondary) > 11(amine_secondary)
O=C1NCCNCCNCCNCCNC(=O)C1Cc2ccccc2,9.01,2:5:8,amine_secondary:amine_secondary:amine_secondary,"14,16-Dioxo-15-phenylmethyl-1,4,7,10,13-pentaazacyclohexadecane",2:5:8,amine_secondary:amine_secondary:amine_secondary,2(amine_secondary) > 5(amine_secondary) > 8(amine_secondary)
O=C1NCCNCCNCCNCCNC(=O)C1Cc2ccccc2,9.11,2:5:8,amine_secondary:amine_secondary:amine_secondary,"14,16-Dioxo-15-phenylmethyl-1,4,7,10,13-pentaazacyclohexadecane",2:5:8,amine_secondary:amine_secondary:amine_secondary,2(amine_secondary) > 5(amine_secondary) > 8(amine_secondary)
O=C1NCCNCCNCCNCCNC(=O)C1Cc2ccccc2,7.43,2:5:8,amine_secondary:amine_secondary:amine_secondary,"14,16-Dioxo-15-phenylmethyl-1,4,7,10,13-pentaazacyclohexadecane",2:5:8,amine_secondary:amine_secondary:amine_secondary,2(amine_secondary) > 5(amine_secondary) > 8(amine_secondary)
O=C1NCCNCCNCCNCCNC(=O)C1Cc2ccccc2,7.79,2:5:8,amine_secondary:amine_secondary:amine_secondary,"14,16-Dioxo-15-phenylmethyl-1,4,7,10,13-pentaazacyclohexadecane",2:5:8,amine_secondary:amine_secondary:amine_secondary,2(amine_secondary) > 5(amine_secondary) > 8(amine_secondary)
O=C1NCCNCCNCCNCCNC(=O)C1Cc2ccccc2,2.03,2:5:8,amine_secondary:amine_secondary:amine_secondary,"14,16-Dioxo-15-phenylmethyl-1,4,7,10,13-pentaazacyclohexadecane",2:5:8,amine_secondary:amine_secondary:amine_secondary,2(amine_secondary) > 5(amine_secondary) > 8(amine_secondary)
O=C1NCCNCCNCCNCCNC(=O)C1Cc2cccc3ccccc23,8.99,2:5,amine_secondary:amine_secondary,"14,16-Dioxo-15-(1-naphthylmethyl)-1,4,7,10,13-pentaazacyclohexadecane",2:5,amine_secondary:amine_secondary,2(amine_secondary) > 5(amine_secondary)
O=C1NCCNCCNCCNCCNC(=O)C1Cc2cccc3ccccc23,7.7,2:5,amine_secondary:amine_secondary,"14,16-Dioxo-15-(1-naphthylmethyl)-1,4,7,10,13-pentaazacyclohexadecane",2:5,amine_secondary:amine_secondary,2(amine_secondary) > 5(amine_secondary)
O=C1NCCNCCNCCNCCNC(=O)C1CCc2ccccn2,10.16,2:5,amine_secondary:amine_secondary,"14,16-Dioxo-15-[2-(2-pyridyl)ethyl]-1,4,7,10,13-pentaazacyclohexadecane",2:5,amine_secondary:amine_secondary,2(amine_secondary) > 5(amine_secondary)
O=C1NCCNCCNCCNCCNC(=O)C1CCc2ccccn2,8.63,2:5,amine_secondary:amine_secondary,"14,16-Dioxo-15-[2-(2-pyridyl)ethyl]-1,4,7,10,13-pentaazacyclohexadecane",2:5,amine_secondary:amine_secondary,2(amine_secondary) > 5(amine_secondary)
O=C1CNCC(=O)NCCNCCCNCCN1,7.98,3:7:10,amine_secondary:amine_secondary:amine_secondary,"5,9-Dioxo-1,4,7,10,13-pentaazacyclohexadecane",3:7:10,amine_secondary:amine_secondary:amine_secondary,3(amine_secondary) > 7(amine_secondary) > 10(amine_secondary)
O=C1CNCC(=O)NCCNCCCNCCN1,4.49,3:7:10,amine_secondary:amine_secondary:amine_secondary,"5,9-Dioxo-1,4,7,10,13-pentaazacyclohexadecane",3:7:10,amine_secondary:amine_secondary:amine_secondary,3(amine_secondary) > 7(amine_secondary) > 10(amine_secondary)
O=C1CNCC(=O)NCCNCCCNCCN1,2.3,3:7:10,amine_secondary:amine_secondary:amine_secondary,"5,9-Dioxo-1,4,7,10,13-pentaazacyclohexadecane",3:7:10,amine_secondary:amine_secondary:amine_secondary,3(amine_secondary) > 7(amine_secondary) > 10(amine_secondary)
O=C1CNCC(=O)NCCNCCNCCNCCN1,8.58,3:7:10,amine_secondary:amine_secondary:amine_secondary,"2,6-Dioxo-1,4,7,10,13,16-hexaazacyclooctadecane",3:7:10,amine_secondary:amine_secondary:amine_secondary,3(amine_secondary) > 7(amine_secondary) > 10(amine_secondary)
O=C1CNCC(=O)NCCNCCNCCNCCN1,6.98,3:7:10,amine_secondary:amine_secondary:amine_secondary,"2,6-Dioxo-1,4,7,10,13,16-hexaazacyclooctadecane",3:7:10,amine_secondary:amine_secondary:amine_secondary,3(amine_secondary) > 7(amine_secondary) > 10(amine_secondary)
O=C1CNCC(=O)NCCNCCNCCNCCN1,2.0,3:7:10,amine_secondary:amine_secondary:amine_secondary,"2,6-Dioxo-1,4,7,10,13,16-hexaazacyclooctadecane",3:7:10,amine_secondary:amine_secondary:amine_secondary,3(amine_secondary) > 7(amine_secondary) > 10(amine_secondary)
C1CNCCSCCSCCN1,9.11,2:11,amine_secondary:amine_secondary,"1,4-Dithia-7,10-diazacyclododecane",2:11,amine_secondary:amine_secondary,2(amine_secondary) > 11(amine_secondary)
C1CNCCSCCSCCN1,9.13,2:11,amine_secondary:amine_secondary,"1,4-Dithia-7,10-diazacyclododecane",2:11,amine_secondary:amine_secondary,2(amine_secondary) > 11(amine_secondary)
C1CNCCSCCSCCN1,5.2,2:11,amine_secondary:amine_secondary,"1,4-Dithia-7,10-diazacyclododecane",2:11,amine_secondary:amine_secondary,2(amine_secondary) > 11(amine_secondary)
C1CNCCSCCSCCN1,5.04,2:11,amine_secondary:amine_secondary,"1,4-Dithia-7,10-diazacyclododecane",2:11,amine_secondary:amine_secondary,2(amine_secondary) > 11(amine_secondary)
C1CNCCNCCCSCCSC1,9.75,2:5,amine_secondary:amine_secondary,"1,4-Dithia-8,11-diazacyclotetradecane",2:5,amine_secondary:amine_secondary,2(amine_secondary) > 5(amine_secondary)
C1CNCCNCCCSCCSC1,9.77,2:5,amine_secondary:amine_secondary,"1,4-Dithia-8,11-diazacyclotetradecane",2:5,amine_secondary:amine_secondary,2(amine_secondary) > 5(amine_secondary)
C1CNCCNCCCSCCSC1,6.01,2:5,amine_secondary:amine_secondary,"1,4-Dithia-8,11-diazacyclotetradecane",2:5,amine_secondary:amine_secondary,2(amine_secondary) > 5(amine_secondary)
C1CNCCNCCCSCCSC1,5.72,2:5,amine_secondary:amine_secondary,"1,4-Dithia-8,11-diazacyclotetradecane",2:5,amine_secondary:amine_secondary,2(amine_secondary) > 5(amine_secondary)
C1CNCCSCCOCCSCCN1,8.9,2:14,amine_secondary:amine_secondary,"1-Oxa-4,13-dithia-7,10-diazacyclopentadecane",2:14,amine_secondary:amine_secondary,2(amine_secondary) > 14(amine_secondary)
C1CNCCSCCOCCSCCN1,5.21,2:14,amine_secondary:amine_secondary,"1-Oxa-4,13-dithia-7,10-diazacyclopentadecane",2:14,amine_secondary:amine_secondary,2(amine_secondary) > 14(amine_secondary)
O=C1CSCC(=O)NCCNCCNCCN1,9.0,7:10,amine_secondary:amine_secondary,"3,14-Dioxo-1-thia-4,7,10,13-tetraazacyclopentadecane",7:10,amine_secondary:amine_secondary,7(amine_secondary) > 10(amine_secondary)
O=C1CSCC(=O)NCCNCCNCCN1,5.49,7:10,amine_secondary:amine_secondary,"3,14-Dioxo-1-thia-4,7,10,13-tetraazacyclopentadecane",7:10,amine_secondary:amine_secondary,7(amine_secondary) > 10(amine_secondary)
O=C1CSCC(=O)NCCCNCCNCCCN1,9.54,7:11,amine_secondary:amine_secondary,"3,16-Dioxo-1-thia-4,8,11,15-tetraazacycloheptadecane",7:11,amine_secondary:amine_secondary,7(amine_secondary) > 11(amine_secondary)
O=C1CSCC(=O)NCCCNCCNCCCN1,6.53,7:11,amine_secondary:amine_secondary,"3,16-Dioxo-1-thia-4,8,11,15-tetraazacycloheptadecane",7:11,amine_secondary:amine_secondary,7(amine_secondary) > 11(amine_secondary)
O=C1CC(=O)NCCNCCSCCNCCN1,8.16,5:8,amine_secondary:amine_secondary,"8,10-Dioxo-1-thia-4,7,11,14-tetraazacyclohexadecane",5:8,amine_secondary:amine_secondary,5(amine_secondary) > 8(amine_secondary)
O=C1CC(=O)NCCNCCSCCNCCN1,7.23,5:8,amine_secondary:amine_secondary,"8,10-Dioxo-1-thia-4,7,11,14-tetraazacyclohexadecane",5:8,amine_secondary:amine_secondary,5(amine_secondary) > 8(amine_secondary)
NCCNCc1[nH]cc(c1)[S](O)(=O)=O,9.74,0:3,amine_primary:amine_secondary,2-(2-Aminoethylaminomethyl)pyrrole-4-sulfonic acid,0:3,amine_primary:amine_secondary,0(amine_primary) > 3(amine_secondary)
NCCNCc1[nH]cc(c1)[S](O)(=O)=O,6.56,0:3,amine_primary:amine_secondary,2-(2-Aminoethylaminomethyl)pyrrole-4-sulfonic acid,0:3,amine_primary:amine_secondary,0(amine_primary) > 3(amine_secondary)
NCCc1c[nH]c2ccc(O)cc12,11.13,10:5,phenol:amine_secondary,3-(2-Aminoethyl)-5-hydroxyindole (5-Hydroxytryptamine),10:5,phenol:amine_secondary,10(phenol) > 5(amine_secondary)
NCCc1c[nH]c2ccc(O)cc12,9.85,10:5,phenol:amine_secondary,3-(2-Aminoethyl)-5-hydroxyindole (5-Hydroxytryptamine),10:5,phenol:amine_secondary,10(phenol) > 5(amine_secondary)
NCCc1c[nH]c(S)n1,11.62,5:7,amine_secondary:thiol,4-(2-Aminoethyl)-2-mercaptoimidazole (2-Mercaptohistamine),7:5,thiol:amine_secondary,7(thiol) > 5(amine_secondary)
NCCc1c[nH]c(S)n1,9.12,5:7,amine_secondary:thiol,4-(2-Aminoethyl)-2-mercaptoimidazole (2-Mercaptohistamine),7:5,thiol:amine_secondary,7(thiol) > 5(amine_secondary)
NCCc1[nH]ccn1,9.27,0:4,amine_primary:amine_secondary,2-(2-Aminoethyl)imidazole (Isohistamine),0:4,amine_primary:amine_secondary,0(amine_primary) > 4(amine_secondary)
NCCc1[nH]ccn1,6.04,0:4,amine_primary:amine_secondary,2-(2-Aminoethyl)imidazole (Isohistamine),0:4,amine_primary:amine_secondary,0(amine_primary) > 4(amine_secondary)
NCCc1c[nH]cn1,9.81,0:5,amine_primary:amine_secondary,4-(2-Aminoethyl)imidazole (Histamine),0:5,amine_primary:amine_secondary,0(amine_primary) > 5(amine_secondary)
NCCc1c[nH]cn1,9.44,0:5,amine_primary:amine_secondary,4-(2-Aminoethyl)imidazole (Histamine),0:5,amine_primary:amine_secondary,0(amine_primary) > 5(amine_secondary)
NCCc1c[nH]cn1,9.91,0:5,amine_primary:amine_secondary,4-(2-Aminoethyl)imidazole (Histamine),0:5,amine_primary:amine_secondary,0(amine_primary) > 5(amine_secondary)
NCCc1c[nH]cn1,10.02,0:5,amine_primary:amine_secondary,4-(2-Aminoethyl)imidazole (Histamine),0:5,amine_primary:amine_secondary,0(amine_primary) > 5(amine_secondary)
NCCc1c[nH]cn1,9.8,0:5,amine_primary:amine_secondary,4-(2-Aminoethyl)imidazole (Histamine),0:5,amine_primary:amine_secondary,0(amine_primary) > 5(amine_secondary)