SMILES,pKa,Dissociable_Atoms,Functional_Group,Name,Dissociable_Atoms_Ordered,Functional_Group_Ordered,Dissociation_Order
FO[P](=O)(CC[P](=O)(OF)OF)OF,2.0,2:3:1:12:6:7:8:10,phosphate:phosphate:phosphate:phosphate:phosphate:phosphate:phosphate:phosphate,Tetrafluoroethylenediphosphonic acid,2:3:1:12:6:7:8:10,phosphate:phosphate:phosphate:phosphate:phosphate:phosphate:phosphate:phosphate,2(phosphate) > 3(phosphate) > 1(phosphate) > 12(phosphate) > 6(phosphate) > 7(phosphate) > 8(phosphate) > 10(phosphate)
FO[P](=O)(CC[P](=O)(OF)OF)OF,1.1,2:3:1:12:6:7:8:10,phosphate:phosphate:phosphate:phosphate:phosphate:phosphate:phosphate:phosphate,Tetrafluoroethylenediphosphonic acid,2:3:1:12:6:7:8:10,phosphate:phosphate:phosphate:phosphate:phosphate:phosphate:phosphate:phosphate,2(phosphate) > 3(phosphate) > 1(phosphate) > 12(phosphate) > 6(phosphate) > 7(phosphate) > 8(phosphate) > 10(phosphate)
OC([P](O)(O)=O)[P](O)(O)=O,10.26,0:2:3,alcohol:phosphate:phosphate,Hydroxymethylenediphosphonic acid,2:3:0,phosphate:phosphate:alcohol,2(phosphate) > 3(phosphate) > 0(alcohol)
OC([P](O)(O)=O)[P](O)(O)=O,10.56,0:2:3,alcohol:phosphate:phosphate,Hydroxymethylenediphosphonic acid,2:3:0,phosphate:phosphate:alcohol,2(phosphate) > 3(phosphate) > 0(alcohol)
OC([P](O)(O)=O)[P](O)(O)=O,6.78,0:2:3,alcohol:phosphate:phosphate,Hydroxymethylenediphosphonic acid,2:3:0,phosphate:phosphate:alcohol,2(phosphate) > 3(phosphate) > 0(alcohol)
OC([P](O)(O)=O)[P](O)(O)=O,7.05,0:2:3,alcohol:phosphate:phosphate,Hydroxymethylenediphosphonic acid,2:3:0,phosphate:phosphate:alcohol,2(phosphate) > 3(phosphate) > 0(alcohol)
OC([P](O)(O)=O)[P](O)(O)=O,2.6,0:2:3,alcohol:phosphate:phosphate,Hydroxymethylenediphosphonic acid,2:3:0,phosphate:phosphate:alcohol,2(phosphate) > 3(phosphate) > 0(alcohol)
OC([P](O)(O)=O)[P](O)(O)=O,2.74,0:2:3,alcohol:phosphate:phosphate,Hydroxymethylenediphosphonic acid,2:3:0,phosphate:phosphate:alcohol,2(phosphate) > 3(phosphate) > 0(alcohol)
CC(O)([P](O)(O)=O)[P](O)(O)=O,9.64,2:3:4:5,alcohol:phosphate:phosphate:phosphate,"1-Hydroxyethane-1,1-diphosphonic acid (Etidronic acid)",3:4:5:2,phosphate:phosphate:phosphate:alcohol,3(phosphate) > 4(phosphate) > 5(phosphate) > 2(alcohol)
CC(O)([P](O)(O)=O)[P](O)(O)=O,10.8,2:3:4:5,alcohol:phosphate:phosphate:phosphate,"1-Hydroxyethane-1,1-diphosphonic acid (Etidronic acid)",3:4:5:2,phosphate:phosphate:phosphate:alcohol,3(phosphate) > 4(phosphate) > 5(phosphate) > 2(alcohol)
CC(O)([P](O)(O)=O)[P](O)(O)=O,11.1,2:3:4:5,alcohol:phosphate:phosphate:phosphate,"1-Hydroxyethane-1,1-diphosphonic acid (Etidronic acid)",3:4:5:2,phosphate:phosphate:phosphate:alcohol,3(phosphate) > 4(phosphate) > 5(phosphate) > 2(alcohol)
CC(O)([P](O)(O)=O)[P](O)(O)=O,9.12,2:3:4:5,alcohol:phosphate:phosphate:phosphate,"1-Hydroxyethane-1,1-diphosphonic acid (Etidronic acid)",3:4:5:2,phosphate:phosphate:phosphate:alcohol,3(phosphate) > 4(phosphate) > 5(phosphate) > 2(alcohol)
CC(O)([P](O)(O)=O)[P](O)(O)=O,11.7,2:3:4:5,alcohol:phosphate:phosphate:phosphate,"1-Hydroxyethane-1,1-diphosphonic acid (Etidronic acid)",3:4:5:2,phosphate:phosphate:phosphate:alcohol,3(phosphate) > 4(phosphate) > 5(phosphate) > 2(alcohol)
CC(O)([P](O)(O)=O)[P](O)(O)=O,6.69,2:3:4:5,alcohol:phosphate:phosphate:phosphate,"1-Hydroxyethane-1,1-diphosphonic acid (Etidronic acid)",3:4:5:2,phosphate:phosphate:phosphate:alcohol,3(phosphate) > 4(phosphate) > 5(phosphate) > 2(alcohol)
CC(O)([P](O)(O)=O)[P](O)(O)=O,6.88,2:3:4:5,alcohol:phosphate:phosphate:phosphate,"1-Hydroxyethane-1,1-diphosphonic acid (Etidronic acid)",3:4:5:2,phosphate:phosphate:phosphate:alcohol,3(phosphate) > 4(phosphate) > 5(phosphate) > 2(alcohol)
CC(O)([P](O)(O)=O)[P](O)(O)=O,7.0,2:3:4:5,alcohol:phosphate:phosphate:phosphate,"1-Hydroxyethane-1,1-diphosphonic acid (Etidronic acid)",3:4:5:2,phosphate:phosphate:phosphate:alcohol,3(phosphate) > 4(phosphate) > 5(phosphate) > 2(alcohol)
CC(O)([P](O)(O)=O)[P](O)(O)=O,6.75,2:3:4:5,alcohol:phosphate:phosphate:phosphate,"1-Hydroxyethane-1,1-diphosphonic acid (Etidronic acid)",3:4:5:2,phosphate:phosphate:phosphate:alcohol,3(phosphate) > 4(phosphate) > 5(phosphate) > 2(alcohol)
CC(O)([P](O)(O)=O)[P](O)(O)=O,6.2,2:3:4:5,alcohol:phosphate:phosphate:phosphate,"1-Hydroxyethane-1,1-diphosphonic acid (Etidronic acid)",3:4:5:2,phosphate:phosphate:phosphate:alcohol,3(phosphate) > 4(phosphate) > 5(phosphate) > 2(alcohol)
CC(O)([P](O)(O)=O)[P](O)(O)=O,7.62,2:3:4:5,alcohol:phosphate:phosphate:phosphate,"1-Hydroxyethane-1,1-diphosphonic acid (Etidronic acid)",3:4:5:2,phosphate:phosphate:phosphate:alcohol,3(phosphate) > 4(phosphate) > 5(phosphate) > 2(alcohol)
CC(O)([P](O)(O)=O)[P](O)(O)=O,2.5,2:3:4:5,alcohol:phosphate:phosphate:phosphate,"1-Hydroxyethane-1,1-diphosphonic acid (Etidronic acid)",3:4:5:2,phosphate:phosphate:phosphate:alcohol,3(phosphate) > 4(phosphate) > 5(phosphate) > 2(alcohol)
CC(O)([P](O)(O)=O)[P](O)(O)=O,2.53,2:3:4:5,alcohol:phosphate:phosphate:phosphate,"1-Hydroxyethane-1,1-diphosphonic acid (Etidronic acid)",3:4:5:2,phosphate:phosphate:phosphate:alcohol,3(phosphate) > 4(phosphate) > 5(phosphate) > 2(alcohol)
CC(O)([P](O)(O)=O)[P](O)(O)=O,2.79,2:3:4:5,alcohol:phosphate:phosphate:phosphate,"1-Hydroxyethane-1,1-diphosphonic acid (Etidronic acid)",3:4:5:2,phosphate:phosphate:phosphate:alcohol,3(phosphate) > 4(phosphate) > 5(phosphate) > 2(alcohol)
CC(O)([P](O)(O)=O)[P](O)(O)=O,2.4,2:3:4:5,alcohol:phosphate:phosphate:phosphate,"1-Hydroxyethane-1,1-diphosphonic acid (Etidronic acid)",3:4:5:2,phosphate:phosphate:phosphate:alcohol,3(phosphate) > 4(phosphate) > 5(phosphate) > 2(alcohol)
CC(O)([P](O)(O)=O)[P](O)(O)=O,2.33,2:3:4:5,alcohol:phosphate:phosphate:phosphate,"1-Hydroxyethane-1,1-diphosphonic acid (Etidronic acid)",3:4:5:2,phosphate:phosphate:phosphate:alcohol,3(phosphate) > 4(phosphate) > 5(phosphate) > 2(alcohol)
CC(O)([P](O)(O)=O)[P](O)(O)=O,2.2,2:3:4:5,alcohol:phosphate:phosphate:phosphate,"1-Hydroxyethane-1,1-diphosphonic acid (Etidronic acid)",3:4:5:2,phosphate:phosphate:phosphate:alcohol,3(phosphate) > 4(phosphate) > 5(phosphate) > 2(alcohol)
CC(O)([P](O)(O)=O)[P](O)(O)=O,3.12,2:3:4:5,alcohol:phosphate:phosphate:phosphate,"1-Hydroxyethane-1,1-diphosphonic acid (Etidronic acid)",3:4:5:2,phosphate:phosphate:phosphate:alcohol,3(phosphate) > 4(phosphate) > 5(phosphate) > 2(alcohol)
CC(O)([P](O)(O)=O)[P](O)(O)=O,1.8,2:3:4:5,alcohol:phosphate:phosphate:phosphate,"1-Hydroxyethane-1,1-diphosphonic acid (Etidronic acid)",3:4:5:2,phosphate:phosphate:phosphate:alcohol,3(phosphate) > 4(phosphate) > 5(phosphate) > 2(alcohol)
CC(O)([P](O)(O)=O)[P](O)(O)=O,1.4,2:3:4:5,alcohol:phosphate:phosphate:phosphate,"1-Hydroxyethane-1,1-diphosphonic acid (Etidronic acid)",3:4:5:2,phosphate:phosphate:phosphate:alcohol,3(phosphate) > 4(phosphate) > 5(phosphate) > 2(alcohol)
CC(O)([P](O)(O)=O)[P](O)(O)=O,1.2,2:3:4:5,alcohol:phosphate:phosphate:phosphate,"1-Hydroxyethane-1,1-diphosphonic acid (Etidronic acid)",3:4:5:2,phosphate:phosphate:phosphate:alcohol,3(phosphate) > 4(phosphate) > 5(phosphate) > 2(alcohol)
CC(O)([P](O)(O)=O)[P](O)(O)=O,1.6,2:3:4:5,alcohol:phosphate:phosphate:phosphate,"1-Hydroxyethane-1,1-diphosphonic acid (Etidronic acid)",3:4:5:2,phosphate:phosphate:phosphate:alcohol,3(phosphate) > 4(phosphate) > 5(phosphate) > 2(alcohol)
CC(O)([P](O)(O)=O)[P](O)(O)=O,2.0,2:3:4:5,alcohol:phosphate:phosphate:phosphate,"1-Hydroxyethane-1,1-diphosphonic acid (Etidronic acid)",3:4:5:2,phosphate:phosphate:phosphate:alcohol,3(phosphate) > 4(phosphate) > 5(phosphate) > 2(alcohol)
OCC(O)([P](O)(O)=O)[P](O)(O)=O,7.8,0:3:4:5,alcohol:alcohol:phosphate:phosphate,"1,2-Dihydroxyethane-1,1-diphosphonic acid",4:5:0:3,phosphate:phosphate:alcohol:alcohol,4(phosphate) > 5(phosphate) > 0(alcohol) > 3(alcohol)
OCC(O)([P](O)(O)=O)[P](O)(O)=O,5.76,0:3:4:5,alcohol:alcohol:phosphate:phosphate,"1,2-Dihydroxyethane-1,1-diphosphonic acid",4:5:0:3,phosphate:phosphate:alcohol:alcohol,4(phosphate) > 5(phosphate) > 0(alcohol) > 3(alcohol)
OCC(O)([P](O)(O)=O)[P](O)(O)=O,1.7,0:3:4:5,alcohol:alcohol:phosphate:phosphate,"1,2-Dihydroxyethane-1,1-diphosphonic acid",4:5:0:3,phosphate:phosphate:alcohol:alcohol,4(phosphate) > 5(phosphate) > 0(alcohol) > 3(alcohol)
OCC(O)([P](O)(O)=O)[P](O)(O)=O,1.0,0:3:4:5,alcohol:alcohol:phosphate:phosphate,"1,2-Dihydroxyethane-1,1-diphosphonic acid",4:5:0:3,phosphate:phosphate:alcohol:alcohol,4(phosphate) > 5(phosphate) > 0(alcohol) > 3(alcohol)
O[P](O)(=O)C(=O)[P](O)(O)=O,8.16,0:1,phosphate:phosphate,Oxomethanediphosphonic acid,0:1,phosphate:phosphate,0(phosphate) > 1(phosphate)
O[P](O)(=O)C(=O)[P](O)(O)=O,8.42,0:1,phosphate:phosphate,Oxomethanediphosphonic acid,0:1,phosphate:phosphate,0(phosphate) > 1(phosphate)
O[P](O)(=O)C(=O)[P](O)(O)=O,5.38,0:1,phosphate:phosphate,Oxomethanediphosphonic acid,0:1,phosphate:phosphate,0(phosphate) > 1(phosphate)
O[P](O)(=O)C(=O)[P](O)(O)=O,5.5,0:1,phosphate:phosphate,Oxomethanediphosphonic acid,0:1,phosphate:phosphate,0(phosphate) > 1(phosphate)
O[P](O)(=O)C1(CCC(=O)N1)[P](O)(O)=O,10.69,9:0:1,amine_secondary:phosphate:phosphate,"2-Oxoazolidine-5,5-diphosphonic acid (Pyrrolidone-5,5-diphosphonic acid)",9:0:1,amine_secondary:phosphate:phosphate,9(amine_secondary) > 0(phosphate) > 1(phosphate)
O[P](O)(=O)C1(CCC(=O)N1)[P](O)(O)=O,6.75,9:0:1,amine_secondary:phosphate:phosphate,"2-Oxoazolidine-5,5-diphosphonic acid (Pyrrolidone-5,5-diphosphonic acid)",9:0:1,amine_secondary:phosphate:phosphate,9(amine_secondary) > 0(phosphate) > 1(phosphate)
O[P](O)(=O)C1(CCC(=O)N1)[P](O)(O)=O,2.25,9:0:1,amine_secondary:phosphate:phosphate,"2-Oxoazolidine-5,5-diphosphonic acid (Pyrrolidone-5,5-diphosphonic acid)",9:0:1,amine_secondary:phosphate:phosphate,9(amine_secondary) > 0(phosphate) > 1(phosphate)
O[P](O)(=O)Oc1ccccc1,5.78,0:1,phosphate:phosphate,Phosphoric acid phenyl ester (Phenyl phosphate),0:1,phosphate:phosphate,0(phosphate) > 1(phosphate)
O[P](O)(=O)Oc1ccccc1,5.8,0:1,phosphate:phosphate,Phosphoric acid phenyl ester (Phenyl phosphate),0:1,phosphate:phosphate,0(phosphate) > 1(phosphate)
O[P](O)(=O)Oc1ccccc1,5.72,0:1,phosphate:phosphate,Phosphoric acid phenyl ester (Phenyl phosphate),0:1,phosphate:phosphate,0(phosphate) > 1(phosphate)
O[P](O)(=O)Oc1ccccc1,5.57,0:1,phosphate:phosphate,Phosphoric acid phenyl ester (Phenyl phosphate),0:1,phosphate:phosphate,0(phosphate) > 1(phosphate)
O[P](O)(=O)Oc1ccccc1,5.6,0:1,phosphate:phosphate,Phosphoric acid phenyl ester (Phenyl phosphate),0:1,phosphate:phosphate,0(phosphate) > 1(phosphate)
O[P](O)(=O)Oc1ccccc1,6.28,0:1,phosphate:phosphate,Phosphoric acid phenyl ester (Phenyl phosphate),0:1,phosphate:phosphate,0(phosphate) > 1(phosphate)
O[P](O)(=O)Oc1ccccc1,0.9,0:1,phosphate:phosphate,Phosphoric acid phenyl ester (Phenyl phosphate),0:1,phosphate:phosphate,0(phosphate) > 1(phosphate)
O[P](O)(=O)Oc1cccc2ccccc12,5.74,0:1,phosphate:phosphate,Phosphoric acid 1-naphthyl ester (alpha-Naphthyl phosphate),0:1,phosphate:phosphate,0(phosphate) > 1(phosphate)
O[P](O)(=O)Oc1cccc2ccccc12,5.85,0:1,phosphate:phosphate,Phosphoric acid 1-naphthyl ester (alpha-Naphthyl phosphate),0:1,phosphate:phosphate,0(phosphate) > 1(phosphate)
O[P](O)(=O)Oc1cccc2ccccc12,5.62,0:1,phosphate:phosphate,Phosphoric acid 1-naphthyl ester (alpha-Naphthyl phosphate),0:1,phosphate:phosphate,0(phosphate) > 1(phosphate)
O[P](O)(=O)Oc1cccc2ccccc12,5.57,0:1,phosphate:phosphate,Phosphoric acid 1-naphthyl ester (alpha-Naphthyl phosphate),0:1,phosphate:phosphate,0(phosphate) > 1(phosphate)
O[P](O)(=O)Oc1cccc2ccccc12,5.55,0:1,phosphate:phosphate,Phosphoric acid 1-naphthyl ester (alpha-Naphthyl phosphate),0:1,phosphate:phosphate,0(phosphate) > 1(phosphate)
O[P](O)(=O)Oc1cccc2ccccc12,6.27,0:1,phosphate:phosphate,Phosphoric acid 1-naphthyl ester (alpha-Naphthyl phosphate),0:1,phosphate:phosphate,0(phosphate) > 1(phosphate)
O[P](O)(=O)Oc1cccc2ccccc12,0.9,0:1,phosphate:phosphate,Phosphoric acid 1-naphthyl ester (alpha-Naphthyl phosphate),0:1,phosphate:phosphate,0(phosphate) > 1(phosphate)
O[P](O)(=O)Oc1ccc2ccccc2c1,5.74,0:1,phosphate:phosphate,Phosphoric acid 2-naphthyl ester (beta-Naphthyl phosphate),0:1,phosphate:phosphate,0(phosphate) > 1(phosphate)
O[P](O)(=O)Oc1ccc2ccccc2c1,5.55,0:1,phosphate:phosphate,Phosphoric acid 2-naphthyl ester (beta-Naphthyl phosphate),0:1,phosphate:phosphate,0(phosphate) > 1(phosphate)
O[P](O)(=O)Oc1ccc2ccccc2c1,5.48,0:1,phosphate:phosphate,Phosphoric acid 2-naphthyl ester (beta-Naphthyl phosphate),0:1,phosphate:phosphate,0(phosphate) > 1(phosphate)
O[P](O)(=O)Oc1ccc2ccccc2c1,6.19,0:1,phosphate:phosphate,Phosphoric acid 2-naphthyl ester (beta-Naphthyl phosphate),0:1,phosphate:phosphate,0(phosphate) > 1(phosphate)
O[P](O)(=O)Oc1ccc2ccccc2c1,1.2,0:1,phosphate:phosphate,Phosphoric acid 2-naphthyl ester (beta-Naphthyl phosphate),0:1,phosphate:phosphate,0(phosphate) > 1(phosphate)
OCC(CO)O[P](O)(O)=O,6.11,0:4,alcohol:alcohol,"Propane-1,2,3-triol-2-(dihydrogenphosphate) (Glycerol-2-phosphate)",0:4,alcohol:alcohol,0(alcohol) > 4(alcohol)
OCC(CO)O[P](O)(O)=O,6.23,0:4,alcohol:alcohol,"Propane-1,2,3-triol-2-(dihydrogenphosphate) (Glycerol-2-phosphate)",0:4,alcohol:alcohol,0(alcohol) > 4(alcohol)
OCC(CO)O[P](O)(O)=O,6.01,0:4,alcohol:alcohol,"Propane-1,2,3-triol-2-(dihydrogenphosphate) (Glycerol-2-phosphate)",0:4,alcohol:alcohol,0(alcohol) > 4(alcohol)
OCC(CO)O[P](O)(O)=O,5.96,0:4,alcohol:alcohol,"Propane-1,2,3-triol-2-(dihydrogenphosphate) (Glycerol-2-phosphate)",0:4,alcohol:alcohol,0(alcohol) > 4(alcohol)
OCC(CO)O[P](O)(O)=O,5.97,0:4,alcohol:alcohol,"Propane-1,2,3-triol-2-(dihydrogenphosphate) (Glycerol-2-phosphate)",0:4,alcohol:alcohol,0(alcohol) > 4(alcohol)
OCC(CO)O[P](O)(O)=O,6.65,0:4,alcohol:alcohol,"Propane-1,2,3-triol-2-(dihydrogenphosphate) (Glycerol-2-phosphate)",0:4,alcohol:alcohol,0(alcohol) > 4(alcohol)
OCC(CO)O[P](O)(O)=O,1.335,0:4,alcohol:alcohol,"Propane-1,2,3-triol-2-(dihydrogenphosphate) (Glycerol-2-phosphate)",0:4,alcohol:alcohol,0(alcohol) > 4(alcohol)
O[C@H](CO[P](O)(O)=O)[C@@H](O)[C@@H](O)C=O,6.17,0:9,alcohol:alcohol,D(-)-Ribose-5-dihydrogenphosphate (Ribose-5-phosphate),0:9,alcohol:alcohol,0(alcohol) > 9(alcohol)
O[C@H](CO[P](O)(O)=O)[C@@H](O)[C@@H](O)C=O,6.7,0:9,alcohol:alcohol,D(-)-Ribose-5-dihydrogenphosphate (Ribose-5-phosphate),0:9,alcohol:alcohol,0(alcohol) > 9(alcohol)
O[C@H](CO[P](O)(O)=O)[C@@H](O)[C@@H](O)C=O,1.5,0:9,alcohol:alcohol,D(-)-Ribose-5-dihydrogenphosphate (Ribose-5-phosphate),0:9,alcohol:alcohol,0(alcohol) > 9(alcohol)
OC[C@H]1O[C@H](O[P](O)(O)=O)[C@H](O)[C@@H](O)[C@@H]1O,5.98,0:11,alcohol:alcohol,alpha-D(-)-Glucose-1-dihydrogenphosphate (Glucose-1-phosphate),0:11,alcohol:alcohol,0(alcohol) > 11(alcohol)
OC[C@H]1O[C@H](O[P](O)(O)=O)[C@H](O)[C@@H](O)[C@@H]1O,6.07,0:11,alcohol:alcohol,alpha-D(-)-Glucose-1-dihydrogenphosphate (Glucose-1-phosphate),0:11,alcohol:alcohol,0(alcohol) > 11(alcohol)
OC[C@H]1O[C@H](O[P](O)(O)=O)[C@H](O)[C@@H](O)[C@@H]1O,5.87,0:11,alcohol:alcohol,alpha-D(-)-Glucose-1-dihydrogenphosphate (Glucose-1-phosphate),0:11,alcohol:alcohol,0(alcohol) > 11(alcohol)
OC[C@H]1O[C@H](O[P](O)(O)=O)[C@H](O)[C@@H](O)[C@@H]1O,5.82,0:11,alcohol:alcohol,alpha-D(-)-Glucose-1-dihydrogenphosphate (Glucose-1-phosphate),0:11,alcohol:alcohol,0(alcohol) > 11(alcohol)
OC[C@H]1O[C@H](O[P](O)(O)=O)[C@H](O)[C@@H](O)[C@@H]1O,5.83,0:11,alcohol:alcohol,alpha-D(-)-Glucose-1-dihydrogenphosphate (Glucose-1-phosphate),0:11,alcohol:alcohol,0(alcohol) > 11(alcohol)
OC[C@H]1O[C@H](O[P](O)(O)=O)[C@H](O)[C@@H](O)[C@@H]1O,6.504,0:11,alcohol:alcohol,alpha-D(-)-Glucose-1-dihydrogenphosphate (Glucose-1-phosphate),0:11,alcohol:alcohol,0(alcohol) > 11(alcohol)
OC[C@H]1O[C@H](O[P](O)(O)=O)[C@H](O)[C@@H](O)[C@@H]1O,1.5,0:11,alcohol:alcohol,alpha-D(-)-Glucose-1-dihydrogenphosphate (Glucose-1-phosphate),0:11,alcohol:alcohol,0(alcohol) > 11(alcohol)
OC1C(O)C(O)(CO[P](O)(O)=O)OC1CO[P](O)(O)=O,6.66,0:3,alcohol:alcohol,"D(-)-Fructose-1,6-bis(dihydrogenphosphate) (Fructose-1,6-diphosphate)",0:3,alcohol:alcohol,0(alcohol) > 3(alcohol)
OC1C(O)C(O)(CO[P](O)(O)=O)OC1CO[P](O)(O)=O,7.28,0:3,alcohol:alcohol,"D(-)-Fructose-1,6-bis(dihydrogenphosphate) (Fructose-1,6-diphosphate)",0:3,alcohol:alcohol,0(alcohol) > 3(alcohol)
OC1C(O)C(O)(CO[P](O)(O)=O)OC1CO[P](O)(O)=O,5.86,0:3,alcohol:alcohol,"D(-)-Fructose-1,6-bis(dihydrogenphosphate) (Fructose-1,6-diphosphate)",0:3,alcohol:alcohol,0(alcohol) > 3(alcohol)
OC1C(O)C(O)(CO[P](O)(O)=O)OC1CO[P](O)(O)=O,6.43,0:3,alcohol:alcohol,"D(-)-Fructose-1,6-bis(dihydrogenphosphate) (Fructose-1,6-diphosphate)",0:3,alcohol:alcohol,0(alcohol) > 3(alcohol)
CO[P]([O-])(=O)O[P](O)(O)=O,6.37,2:6,phosphate:phosphate,Diphosphoric acid methyl ester (Methyl diphosphate),2:6,phosphate:phosphate,2(phosphate) > 6(phosphate)
CO[P]([O-])(=O)O[P](O)(O)=O,1.6,2:6,phosphate:phosphate,Diphosphoric acid methyl ester (Methyl diphosphate),2:6,phosphate:phosphate,2(phosphate) > 6(phosphate)
CCCCO[P]([O-])(=O)O[P](O)(O)=O,6.65,5:9,phosphate:phosphate,Diphosphoric acid butyl ester (Butyl diphosphate),5:9,phosphate:phosphate,5(phosphate) > 9(phosphate)
CCCCO[P]([O-])(=O)O[P](O)(O)=O,1.3,5:9,phosphate:phosphate,Diphosphoric acid butyl ester (Butyl diphosphate),5:9,phosphate:phosphate,5(phosphate) > 9(phosphate)
O[P](O)(=O)O[P]([O-])(=O)Oc1ccccc1,6.32,0:1,phosphate:phosphate,Diphosphoric acid phenyl ester (Phenyl diphosphate),0:1,phosphate:phosphate,0(phosphate) > 1(phosphate)
O[P](O)(=O)O[P]([O-])(=O)Oc1ccccc1,1.3,0:1,phosphate:phosphate,Diphosphoric acid phenyl ester (Phenyl diphosphate),0:1,phosphate:phosphate,0(phosphate) > 1(phosphate)
C[As](O)(O)=O,8.66,2:3,alcohol:alcohol,Methylarsonic acid,2:3,alcohol:alcohol,2(alcohol) > 3(alcohol)
C[As](O)(O)=O,8.77,2:3,alcohol:alcohol,Methylarsonic acid,2:3,alcohol:alcohol,2(alcohol) > 3(alcohol)
C[As](O)(O)=O,3.96,2:3,alcohol:alcohol,Methylarsonic acid,2:3,alcohol:alcohol,2(alcohol) > 3(alcohol)
C[As](O)(O)=O,4.19,2:3,alcohol:alcohol,Methylarsonic acid,2:3,alcohol:alcohol,2(alcohol) > 3(alcohol)
CC[As](O)(O)=O,9.19,3:4,alcohol:alcohol,Ethylarsonic acid,3:4,alcohol:alcohol,3(alcohol) > 4(alcohol)
CC[As](O)(O)=O,4.24,3:4,alcohol:alcohol,Ethylarsonic acid,3:4,alcohol:alcohol,3(alcohol) > 4(alcohol)
CCC[As](O)(O)=O,9.36,4:5,alcohol:alcohol,Propylarsonic acid,4:5,alcohol:alcohol,4(alcohol) > 5(alcohol)
CCC[As](O)(O)=O,4.34,4:5,alcohol:alcohol,Propylarsonic acid,4:5,alcohol:alcohol,4(alcohol) > 5(alcohol)
CCCC[As](O)(O)=O,9.31,5:6,alcohol:alcohol,Butylarsonic acid,5:6,alcohol:alcohol,5(alcohol) > 6(alcohol)
CCCC[As](O)(O)=O,4.37,5:6,alcohol:alcohol,Butylarsonic acid,5:6,alcohol:alcohol,5(alcohol) > 6(alcohol)
CCCCC[As](O)(O)=O,9.39,6:7,alcohol:alcohol,Pentylarsonic acid,6:7,alcohol:alcohol,6(alcohol) > 7(alcohol)
CCCCC[As](O)(O)=O,4.34,6:7,alcohol:alcohol,Pentylarsonic acid,6:7,alcohol:alcohol,6(alcohol) > 7(alcohol)
CCCCCC[As](O)(O)=O,9.41,7:8,alcohol:alcohol,Hexylarsonic acid,7:8,alcohol:alcohol,7(alcohol) > 8(alcohol)
CCCCCC[As](O)(O)=O,4.34,7:8,alcohol:alcohol,Hexylarsonic acid,7:8,alcohol:alcohol,7(alcohol) > 8(alcohol)
O[As](O)(=O)c1ccccc1,8.25,0:2,alcohol:alcohol,Benzenearsonic acid,0:2,alcohol:alcohol,0(alcohol) > 2(alcohol)
O[As](O)(=O)c1ccccc1,8.75,0:2,alcohol:alcohol,Benzenearsonic acid,0:2,alcohol:alcohol,0(alcohol) > 2(alcohol)
O[As](O)(=O)c1ccccc1,3.39,0:2,alcohol:alcohol,Benzenearsonic acid,0:2,alcohol:alcohol,0(alcohol) > 2(alcohol)
O[As](O)(=O)c1ccccc1,3.61,0:2,alcohol:alcohol,Benzenearsonic acid,0:2,alcohol:alcohol,0(alcohol) > 2(alcohol)
Oc1ccc(cc1)[As](O)(O)=O,10.24,0:8:9,phenol:alcohol:alcohol,4-Hydroxybenzenearsonic acid,0:8:9,phenol:alcohol:alcohol,0(phenol) > 8(alcohol) > 9(alcohol)
Oc1ccc(cc1)[As](O)(O)=O,8.65,0:8:9,phenol:alcohol:alcohol,4-Hydroxybenzenearsonic acid,0:8:9,phenol:alcohol:alcohol,0(phenol) > 8(alcohol) > 9(alcohol)
Oc1ccc(cc1)[As](O)(O)=O,3.85,0:8:9,phenol:alcohol:alcohol,4-Hydroxybenzenearsonic acid,0:8:9,phenol:alcohol:alcohol,0(phenol) > 8(alcohol) > 9(alcohol)
COc1ccccc1[As](O)(O)=O,9.4,9:10,alcohol:alcohol,2-Methoxybenzenearsonic acid,9:10,alcohol:alcohol,9(alcohol) > 10(alcohol)
COc1ccccc1[As](O)(O)=O,4.08,9:10,alcohol:alcohol,2-Methoxybenzenearsonic acid,9:10,alcohol:alcohol,9(alcohol) > 10(alcohol)