SMILES,pKa,Dissociable_Atoms,Functional_Group,Name,Dissociable_Atoms_Ordered,Functional_Group_Ordered,Dissociation_Order
N[C@@H](CCC(O)=O)C(=O)NCC(O)=O,4.11,5:12:0,carboxylic_acid:carboxylic_acid:amine_primary,L-Glutamylglycine,5:12:0,carboxylic_acid:carboxylic_acid:amine_primary,5(carboxylic_acid) > 12(carboxylic_acid) > 0(amine_primary)
N[C@@H](CCC(O)=O)C(=O)NCC(O)=O,4.14,5:12:0,carboxylic_acid:carboxylic_acid:amine_primary,L-Glutamylglycine,5:12:0,carboxylic_acid:carboxylic_acid:amine_primary,5(carboxylic_acid) > 12(carboxylic_acid) > 0(amine_primary)
N[C@@H](CCC(O)=O)C(=O)NCC(O)=O,2.91,5:12:0,carboxylic_acid:carboxylic_acid:amine_primary,L-Glutamylglycine,5:12:0,carboxylic_acid:carboxylic_acid:amine_primary,5(carboxylic_acid) > 12(carboxylic_acid) > 0(amine_primary)
N[C@@H](CCC(O)=O)C(=O)NCC(O)=O,3.15,5:12:0,carboxylic_acid:carboxylic_acid:amine_primary,L-Glutamylglycine,5:12:0,carboxylic_acid:carboxylic_acid:amine_primary,5(carboxylic_acid) > 12(carboxylic_acid) > 0(amine_primary)
N[C@@H](Cc1ccc(O)cc1)C(=O)NCC(O)=O,9.92,15:0:12,carboxylic_acid:amine_primary:amine_secondary,L-Tyrosylglycine,15:0:12,carboxylic_acid:amine_primary:amine_secondary,15(carboxylic_acid) > 0(amine_primary) > 12(amine_secondary)
N[C@@H](Cc1ccc(O)cc1)C(=O)NCC(O)=O,7.62,15:0:12,carboxylic_acid:amine_primary:amine_secondary,L-Tyrosylglycine,15:0:12,carboxylic_acid:amine_primary:amine_secondary,15(carboxylic_acid) > 0(amine_primary) > 12(amine_secondary)
N[C@@H](Cc1ccc(O)cc1)C(=O)NCC(O)=O,3.14,15:0:12,carboxylic_acid:amine_primary:amine_secondary,L-Tyrosylglycine,15:0:12,carboxylic_acid:amine_primary:amine_secondary,15(carboxylic_acid) > 0(amine_primary) > 12(amine_secondary)
N[C@@H](CO)C(=O)NCC(O)=O,7.34,9:0,carboxylic_acid:amine_primary,L-Serylglycine,9:0,carboxylic_acid:amine_primary,9(carboxylic_acid) > 0(amine_primary)
N[C@@H](CO)C(=O)NCC(O)=O,3.15,9:0,carboxylic_acid:amine_primary,L-Serylglycine,9:0,carboxylic_acid:amine_primary,9(carboxylic_acid) > 0(amine_primary)
N[C@@H](CS)C(=O)NCC(O)=O,9.3,9:0:6,carboxylic_acid:amine_primary:amine_secondary,L-Cysteinylglycine,9:0:6,carboxylic_acid:amine_primary:amine_secondary,9(carboxylic_acid) > 0(amine_primary) > 6(amine_secondary)
N[C@@H](CS)C(=O)NCC(O)=O,6.91,9:0:6,carboxylic_acid:amine_primary:amine_secondary,L-Cysteinylglycine,9:0:6,carboxylic_acid:amine_primary:amine_secondary,9(carboxylic_acid) > 0(amine_primary) > 6(amine_secondary)
N[C@@H](CS)C(=O)NCC(O)=O,3.15,9:0:6,carboxylic_acid:amine_primary:amine_secondary,L-Cysteinylglycine,9:0:6,carboxylic_acid:amine_primary:amine_secondary,9(carboxylic_acid) > 0(amine_primary) > 6(amine_secondary)
CSCC[C@H](N)C(=O)NCC(O)=O,7.59,11:5,carboxylic_acid:amine_primary,L-Methionylglycine,11:5,carboxylic_acid:amine_primary,11(carboxylic_acid) > 5(amine_primary)
CSCC[C@H](N)C(=O)NCC(O)=O,3.16,11:5,carboxylic_acid:amine_primary,L-Methionylglycine,11:5,carboxylic_acid:amine_primary,11(carboxylic_acid) > 5(amine_primary)
NCCCC[C@H](N)C(=O)NCC(O)=O,10.61,12:0,carboxylic_acid:amine_primary,L-Lysylglycine,12:0,carboxylic_acid:amine_primary,12(carboxylic_acid) > 0(amine_primary)
NCCCC[C@H](N)C(=O)NCC(O)=O,7.64,12:0,carboxylic_acid:amine_primary,L-Lysylglycine,12:0,carboxylic_acid:amine_primary,12(carboxylic_acid) > 0(amine_primary)
N[C@@H](Cc1c[nH]cn1)C(=O)NCC(O)=O,7.6,13:0:5,carboxylic_acid:amine_primary:amine_secondary,L-Histidylglycine,13:0:5,carboxylic_acid:amine_primary:amine_secondary,13(carboxylic_acid) > 0(amine_primary) > 5(amine_secondary)
N[C@@H](Cc1c[nH]cn1)C(=O)NCC(O)=O,5.88,13:0:5,carboxylic_acid:amine_primary:amine_secondary,L-Histidylglycine,13:0:5,carboxylic_acid:amine_primary:amine_secondary,13(carboxylic_acid) > 0(amine_primary) > 5(amine_secondary)
N[C@@H](Cc1c[nH]cn1)C(=O)NCC(O)=O,2.72,13:0:5,carboxylic_acid:amine_primary:amine_secondary,L-Histidylglycine,13:0:5,carboxylic_acid:amine_primary:amine_secondary,13(carboxylic_acid) > 0(amine_primary) > 5(amine_secondary)
NCCC(=O)NCCC(O)=O,9.36,9:0,carboxylic_acid:amine_primary,beta-Alanyl-beta-alanine,9:0,carboxylic_acid:amine_primary,9(carboxylic_acid) > 0(amine_primary)
NCCC(=O)NCCC(O)=O,3.95,9:0,carboxylic_acid:amine_primary,beta-Alanyl-beta-alanine,9:0,carboxylic_acid:amine_primary,9(carboxylic_acid) > 0(amine_primary)
NCCC(=O)NC(Cc1[nH]cnc1)C(O)=O,9.35,14:0:5,carboxylic_acid:amine_primary:amine_secondary,beta-Alanyl-L-histidine (L-Carnosine),14:0:5,carboxylic_acid:amine_primary:amine_secondary,14(carboxylic_acid) > 0(amine_primary) > 5(amine_secondary)
NCCC(=O)NC(Cc1[nH]cnc1)C(O)=O,9.04,14:0:5,carboxylic_acid:amine_primary:amine_secondary,beta-Alanyl-L-histidine (L-Carnosine),14:0:5,carboxylic_acid:amine_primary:amine_secondary,14(carboxylic_acid) > 0(amine_primary) > 5(amine_secondary)
NCCC(=O)NC(Cc1[nH]cnc1)C(O)=O,6.79,14:0:5,carboxylic_acid:amine_primary:amine_secondary,beta-Alanyl-L-histidine (L-Carnosine),14:0:5,carboxylic_acid:amine_primary:amine_secondary,14(carboxylic_acid) > 0(amine_primary) > 5(amine_secondary)
NCCC(=O)NC(Cc1[nH]cnc1)C(O)=O,6.59,14:0:5,carboxylic_acid:amine_primary:amine_secondary,beta-Alanyl-L-histidine (L-Carnosine),14:0:5,carboxylic_acid:amine_primary:amine_secondary,14(carboxylic_acid) > 0(amine_primary) > 5(amine_secondary)
NCCC(=O)NC(Cc1[nH]cnc1)C(O)=O,2.54,14:0:5,carboxylic_acid:amine_primary:amine_secondary,beta-Alanyl-L-histidine (L-Carnosine),14:0:5,carboxylic_acid:amine_primary:amine_secondary,14(carboxylic_acid) > 0(amine_primary) > 5(amine_secondary)
NCCC(=O)NC(Cc1[nH]cnc1)C(O)=O,2.63,14:0:5,carboxylic_acid:amine_primary:amine_secondary,beta-Alanyl-L-histidine (L-Carnosine),14:0:5,carboxylic_acid:amine_primary:amine_secondary,14(carboxylic_acid) > 0(amine_primary) > 5(amine_secondary)
Cn1cncc1CC(NC(=O)CCN)C(O)=O,9.33,15:13,carboxylic_acid:amine_primary,beta-Alanyl-L-1-methylhistidine (L-Anserine),15:13,carboxylic_acid:amine_primary,15(carboxylic_acid) > 13(amine_primary)
Cn1cncc1CC(NC(=O)CCN)C(O)=O,7.03,15:13,carboxylic_acid:amine_primary,beta-Alanyl-L-1-methylhistidine (L-Anserine),15:13,carboxylic_acid:amine_primary,15(carboxylic_acid) > 13(amine_primary)
C[C@H](N)C(=O)N[C@@H](C)C(O)=O,8.15,9:2,carboxylic_acid:amine_primary,L-Alanyl-L-alanine,9:2,carboxylic_acid:amine_primary,9(carboxylic_acid) > 2(amine_primary)
C[C@H](N)C(=O)N[C@@H](C)C(O)=O,3.27,9:2,carboxylic_acid:amine_primary,L-Alanyl-L-alanine,9:2,carboxylic_acid:amine_primary,9(carboxylic_acid) > 2(amine_primary)
C[C@H](N)C(=O)N[C@H](C)C(O)=O,8.29,9:2,carboxylic_acid:amine_primary,L-Alanyl-D-alanine,9:2,carboxylic_acid:amine_primary,9(carboxylic_acid) > 2(amine_primary)
C[C@H](N)C(=O)N[C@H](C)C(O)=O,3.13,9:2,carboxylic_acid:amine_primary,L-Alanyl-D-alanine,9:2,carboxylic_acid:amine_primary,9(carboxylic_acid) > 2(amine_primary)
C[C@H](N)C(=O)NC(C)(C)C(O)=O,8.22,10:2,carboxylic_acid:amine_primary,L-Alanyl-2-methylalanine,10:2,carboxylic_acid:amine_primary,10(carboxylic_acid) > 2(amine_primary)
C[C@H](N)C(=O)NC(C)(C)C(O)=O,3.49,10:2,carboxylic_acid:amine_primary,L-Alanyl-2-methylalanine,10:2,carboxylic_acid:amine_primary,10(carboxylic_acid) > 2(amine_primary)
CC(C)C[C@H](NC(=O)[C@H](C)N)C(O)=O,8.03,12:10,carboxylic_acid:amine_primary,L-Alanyl-L-leucine,12:10,carboxylic_acid:amine_primary,12(carboxylic_acid) > 10(amine_primary)
CC(C)C[C@H](NC(=O)[C@H](C)N)C(O)=O,3.34,12:10,carboxylic_acid:amine_primary,L-Alanyl-L-leucine,12:10,carboxylic_acid:amine_primary,12(carboxylic_acid) > 10(amine_primary)
CC(C)C[C@H](NC(=O)[C@@H](C)N)C(O)=O,8.23,12:10,carboxylic_acid:amine_primary,D-Alanyl-L-leucine,12:10,carboxylic_acid:amine_primary,12(carboxylic_acid) > 10(amine_primary)
CC(C)C[C@H](NC(=O)[C@@H](C)N)C(O)=O,3.14,12:10,carboxylic_acid:amine_primary,D-Alanyl-L-leucine,12:10,carboxylic_acid:amine_primary,12(carboxylic_acid) > 10(amine_primary)
C[C@H](N)C(=O)N[C@@H](Cc1ccccc1)C(O)=O,7.9,15:2,carboxylic_acid:amine_primary,L-Alanyl-L-phenylalanine,15:2,carboxylic_acid:amine_primary,15(carboxylic_acid) > 2(amine_primary)
C[C@H](N)C(=O)N[C@@H](Cc1ccccc1)C(O)=O,3.2,15:2,carboxylic_acid:amine_primary,L-Alanyl-L-phenylalanine,15:2,carboxylic_acid:amine_primary,15(carboxylic_acid) > 2(amine_primary)
C[C@H](N)C(=O)N[C@H](Cc1ccccc1)C(O)=O,8.13,15:2,carboxylic_acid:amine_primary,L-Alanyl-D-phenylalanine,15:2,carboxylic_acid:amine_primary,15(carboxylic_acid) > 2(amine_primary)
C[C@H](N)C(=O)N[C@H](Cc1ccccc1)C(O)=O,2.99,15:2,carboxylic_acid:amine_primary,L-Alanyl-D-phenylalanine,15:2,carboxylic_acid:amine_primary,15(carboxylic_acid) > 2(amine_primary)
C[C@H](N)C(=O)N1CCC[C@H]1C(O)=O,8.4,2:11,amine_primary:carboxylic_acid,L-Alanyl-L-proline,11:2,carboxylic_acid:amine_primary,11(carboxylic_acid) > 2(amine_primary)
C[C@H](N)C(=O)N1CCC[C@H]1C(O)=O,2.9,2:11,amine_primary:carboxylic_acid,L-Alanyl-L-proline,11:2,carboxylic_acid:amine_primary,11(carboxylic_acid) > 2(amine_primary)
C[C@H](N)C(=O)N[C@@H](CCCNC(N)=N)C(O)=O,7.95,15:2,carboxylic_acid:amine_primary,L-Alanyl-L-arginine,15:2,carboxylic_acid:amine_primary,15(carboxylic_acid) > 2(amine_primary)
C[C@H](N)C(=O)N[C@@H](CCCNC(N)=N)C(O)=O,2.99,15:2,carboxylic_acid:amine_primary,L-Alanyl-L-arginine,15:2,carboxylic_acid:amine_primary,15(carboxylic_acid) > 2(amine_primary)
C[C@H](N)C(=O)N[C@@H](CS)C(O)=O,9.52,10:2:5,carboxylic_acid:amine_primary:amine_secondary,L-Alanyl-L-cysteine,10:2:5,carboxylic_acid:amine_primary:amine_secondary,10(carboxylic_acid) > 2(amine_primary) > 5(amine_secondary)
C[C@H](N)C(=O)N[C@@H](CS)C(O)=O,7.98,10:2:5,carboxylic_acid:amine_primary:amine_secondary,L-Alanyl-L-cysteine,10:2:5,carboxylic_acid:amine_primary:amine_secondary,10(carboxylic_acid) > 2(amine_primary) > 5(amine_secondary)
C[C@H](N)C(=O)N[C@@H](CS)C(O)=O,2.89,10:2:5,carboxylic_acid:amine_primary:amine_secondary,L-Alanyl-L-cysteine,10:2:5,carboxylic_acid:amine_primary:amine_secondary,10(carboxylic_acid) > 2(amine_primary) > 5(amine_secondary)
C[C@H](N)C(=O)N[C@@H](Cc1c[nH]cn1)C(O)=O,8.06,14:2:5,carboxylic_acid:amine_primary:amine_secondary,L-Alanyl-L-histidine,14:2:5,carboxylic_acid:amine_primary:amine_secondary,14(carboxylic_acid) > 2(amine_primary) > 5(amine_secondary)
C[C@H](N)C(=O)N[C@@H](Cc1c[nH]cn1)C(O)=O,7.79,14:2:5,carboxylic_acid:amine_primary:amine_secondary,L-Alanyl-L-histidine,14:2:5,carboxylic_acid:amine_primary:amine_secondary,14(carboxylic_acid) > 2(amine_primary) > 5(amine_secondary)
C[C@H](N)C(=O)N[C@@H](Cc1c[nH]cn1)C(O)=O,8.86,14:2:5,carboxylic_acid:amine_primary:amine_secondary,L-Alanyl-L-histidine,14:2:5,carboxylic_acid:amine_primary:amine_secondary,14(carboxylic_acid) > 2(amine_primary) > 5(amine_secondary)
C[C@H](N)C(=O)N[C@@H](Cc1c[nH]cn1)C(O)=O,6.74,14:2:5,carboxylic_acid:amine_primary:amine_secondary,L-Alanyl-L-histidine,14:2:5,carboxylic_acid:amine_primary:amine_secondary,14(carboxylic_acid) > 2(amine_primary) > 5(amine_secondary)
C[C@H](N)C(=O)N[C@@H](Cc1c[nH]cn1)C(O)=O,6.5,14:2:5,carboxylic_acid:amine_primary:amine_secondary,L-Alanyl-L-histidine,14:2:5,carboxylic_acid:amine_primary:amine_secondary,14(carboxylic_acid) > 2(amine_primary) > 5(amine_secondary)
C[C@H](N)C(=O)N[C@@H](Cc1c[nH]cn1)C(O)=O,6.85,14:2:5,carboxylic_acid:amine_primary:amine_secondary,L-Alanyl-L-histidine,14:2:5,carboxylic_acid:amine_primary:amine_secondary,14(carboxylic_acid) > 2(amine_primary) > 5(amine_secondary)
C[C@H](N)C(=O)N[C@@H](Cc1c[nH]cn1)C(O)=O,2.68,14:2:5,carboxylic_acid:amine_primary:amine_secondary,L-Alanyl-L-histidine,14:2:5,carboxylic_acid:amine_primary:amine_secondary,14(carboxylic_acid) > 2(amine_primary) > 5(amine_secondary)
C[C@H](N)C(=O)N[C@@H](Cc1c[nH]cn1)C(O)=O,2.5,14:2:5,carboxylic_acid:amine_primary:amine_secondary,L-Alanyl-L-histidine,14:2:5,carboxylic_acid:amine_primary:amine_secondary,14(carboxylic_acid) > 2(amine_primary) > 5(amine_secondary)
C[C@H](N)C(=O)N[C@@H](Cc1c[nH]cn1)C(O)=O,2.76,14:2:5,carboxylic_acid:amine_primary:amine_secondary,L-Alanyl-L-histidine,14:2:5,carboxylic_acid:amine_primary:amine_secondary,14(carboxylic_acid) > 2(amine_primary) > 5(amine_secondary)
CC(C)[C@H](N)C(=O)N[C@@H](C)C(O)=O,7.92,11:4,carboxylic_acid:amine_primary,L-Valyl-L-alanine,11:4,carboxylic_acid:amine_primary,11(carboxylic_acid) > 4(amine_primary)
CC(C)[C@H](N)C(=O)N[C@@H](C)C(O)=O,3.32,11:4,carboxylic_acid:amine_primary,L-Valyl-L-alanine,11:4,carboxylic_acid:amine_primary,11(carboxylic_acid) > 4(amine_primary)
CC(C)C[C@H](N)C(=O)N[C@@H](C)C(O)=O,8.08,12:5,carboxylic_acid:amine_primary,L-Leucyl-L-alanine,12:5,carboxylic_acid:amine_primary,12(carboxylic_acid) > 5(amine_primary)
CC(C)C[C@H](N)C(=O)N[C@@H](C)C(O)=O,3.36,12:5,carboxylic_acid:amine_primary,L-Leucyl-L-alanine,12:5,carboxylic_acid:amine_primary,12(carboxylic_acid) > 5(amine_primary)
CC(C)C[C@H](N)C(=O)N[C@H](C)C(O)=O,8.17,12:5,carboxylic_acid:amine_primary,L-Leucyl-D-alanine,12:5,carboxylic_acid:amine_primary,12(carboxylic_acid) > 5(amine_primary)
CC(C)C[C@H](N)C(=O)N[C@H](C)C(O)=O,2.98,12:5,carboxylic_acid:amine_primary,L-Leucyl-D-alanine,12:5,carboxylic_acid:amine_primary,12(carboxylic_acid) > 5(amine_primary)
C[C@H](NC(=O)[C@@H](N)CC(O)=O)C(O)=O,7.99,9:12:6,carboxylic_acid:carboxylic_acid:amine_primary,L-Aspartyl-L-alanine,9:12:6,carboxylic_acid:carboxylic_acid:amine_primary,9(carboxylic_acid) > 12(carboxylic_acid) > 6(amine_primary)
C[C@H](NC(=O)[C@@H](N)CC(O)=O)C(O)=O,3.61,9:12:6,carboxylic_acid:carboxylic_acid:amine_primary,L-Aspartyl-L-alanine,9:12:6,carboxylic_acid:carboxylic_acid:amine_primary,9(carboxylic_acid) > 12(carboxylic_acid) > 6(amine_primary)
C[C@H](NC(=O)[C@@H](N)CC(O)=O)C(O)=O,2.73,9:12:6,carboxylic_acid:carboxylic_acid:amine_primary,L-Aspartyl-L-alanine,9:12:6,carboxylic_acid:carboxylic_acid:amine_primary,9(carboxylic_acid) > 12(carboxylic_acid) > 6(amine_primary)
C[C@H](NC(=O)[C@@H](N)CCC(O)=O)C(O)=O,7.98,10:13:6,carboxylic_acid:carboxylic_acid:amine_primary,L-Glutamyl-L-alanine,10:13:6,carboxylic_acid:carboxylic_acid:amine_primary,10(carboxylic_acid) > 13(carboxylic_acid) > 6(amine_primary)
C[C@H](NC(=O)[C@@H](N)CCC(O)=O)C(O)=O,4.16,10:13:6,carboxylic_acid:carboxylic_acid:amine_primary,L-Glutamyl-L-alanine,10:13:6,carboxylic_acid:carboxylic_acid:amine_primary,10(carboxylic_acid) > 13(carboxylic_acid) > 6(amine_primary)
C[C@H](NC(=O)[C@@H](N)CCC(O)=O)C(O)=O,1.2,10:13:6,carboxylic_acid:carboxylic_acid:amine_primary,L-Glutamyl-L-alanine,10:13:6,carboxylic_acid:carboxylic_acid:amine_primary,10(carboxylic_acid) > 13(carboxylic_acid) > 6(amine_primary)
C[C@H](NC(=O)[C@@H](N)Cc1ccc(O)cc1)C(O)=O,9.98,16:6:2,carboxylic_acid:amine_primary:amine_secondary,L-Tyrosyl-L-alanine,16:6:2,carboxylic_acid:amine_primary:amine_secondary,16(carboxylic_acid) > 6(amine_primary) > 2(amine_secondary)
C[C@H](NC(=O)[C@@H](N)Cc1ccc(O)cc1)C(O)=O,7.51,16:6:2,carboxylic_acid:amine_primary:amine_secondary,L-Tyrosyl-L-alanine,16:6:2,carboxylic_acid:amine_primary:amine_secondary,16(carboxylic_acid) > 6(amine_primary) > 2(amine_secondary)
C[C@H](NC(=O)[C@@H](N)Cc1ccc(O)cc1)C(O)=O,3.38,16:6:2,carboxylic_acid:amine_primary:amine_secondary,L-Tyrosyl-L-alanine,16:6:2,carboxylic_acid:amine_primary:amine_secondary,16(carboxylic_acid) > 6(amine_primary) > 2(amine_secondary)
C[C@@H](NC(=O)[C@@H](N)Cc1ccc(O)cc1)C(O)=O,9.79,16:6:2,carboxylic_acid:amine_primary:amine_secondary,L-Tyrosyl-D-alanine,16:6:2,carboxylic_acid:amine_primary:amine_secondary,16(carboxylic_acid) > 6(amine_primary) > 2(amine_secondary)
C[C@@H](NC(=O)[C@@H](N)Cc1ccc(O)cc1)C(O)=O,7.66,16:6:2,carboxylic_acid:amine_primary:amine_secondary,L-Tyrosyl-D-alanine,16:6:2,carboxylic_acid:amine_primary:amine_secondary,16(carboxylic_acid) > 6(amine_primary) > 2(amine_secondary)
C[C@@H](NC(=O)[C@@H](N)Cc1ccc(O)cc1)C(O)=O,3.05,16:6:2,carboxylic_acid:amine_primary:amine_secondary,L-Tyrosyl-D-alanine,16:6:2,carboxylic_acid:amine_primary:amine_secondary,16(carboxylic_acid) > 6(amine_primary) > 2(amine_secondary)
C[C@H](NC(=O)[C@@H]1CCCN1)C(O)=O,8.98,11:2,carboxylic_acid:amine_secondary,L-Prolyl-L-alanine,11:2,carboxylic_acid:amine_secondary,11(carboxylic_acid) > 2(amine_secondary)
C[C@H](NC(=O)[C@@H]1CCCN1)C(O)=O,9.07,11:2,carboxylic_acid:amine_secondary,L-Prolyl-L-alanine,11:2,carboxylic_acid:amine_secondary,11(carboxylic_acid) > 2(amine_secondary)
C[C@H](NC(=O)[C@@H]1CCCN1)C(O)=O,3.27,11:2,carboxylic_acid:amine_secondary,L-Prolyl-L-alanine,11:2,carboxylic_acid:amine_secondary,11(carboxylic_acid) > 2(amine_secondary)
C[C@H](NC(=O)[C@@H]1CCCN1)C(O)=O,3.08,11:2,carboxylic_acid:amine_secondary,L-Prolyl-L-alanine,11:2,carboxylic_acid:amine_secondary,11(carboxylic_acid) > 2(amine_secondary)
C[C@@H](NC(=O)[C@@H]1CCCN1)C(O)=O,9.09,11:2,carboxylic_acid:amine_secondary,L-Prolyl-D-alanine,11:2,carboxylic_acid:amine_secondary,11(carboxylic_acid) > 2(amine_secondary)
C[C@@H](NC(=O)[C@@H]1CCCN1)C(O)=O,3.15,11:2,carboxylic_acid:amine_secondary,L-Prolyl-D-alanine,11:2,carboxylic_acid:amine_secondary,11(carboxylic_acid) > 2(amine_secondary)
CC(C)[C@H](N)C(=O)N[C@@H](C(C)C)C(O)=O,7.96,13:4,carboxylic_acid:amine_primary,L-Valyl-L-valine,13:4,carboxylic_acid:amine_primary,13(carboxylic_acid) > 4(amine_primary)
CC(C)[C@H](N)C(=O)N[C@@H](C(C)C)C(O)=O,3.4,13:4,carboxylic_acid:amine_primary,L-Valyl-L-valine,13:4,carboxylic_acid:amine_primary,13(carboxylic_acid) > 4(amine_primary)
CC(C)[C@H](N)C(=O)N[C@H](C(C)C)C(O)=O,8.22,13:4,carboxylic_acid:amine_primary,L-Valyl-D-valine,13:4,carboxylic_acid:amine_primary,13(carboxylic_acid) > 4(amine_primary)
CC(C)[C@H](N)C(=O)N[C@H](C(C)C)C(O)=O,3.04,13:4,carboxylic_acid:amine_primary,L-Valyl-D-valine,13:4,carboxylic_acid:amine_primary,13(carboxylic_acid) > 4(amine_primary)
CC(C)[C@H](N)C(=O)N[C@@H](CCCCN)C(O)=O,10.0,15:4:13,carboxylic_acid:amine_primary:amine_primary,L-Valyl-L-lysine,15:4:13,carboxylic_acid:amine_primary:amine_primary,15(carboxylic_acid) > 4(amine_primary) > 13(amine_primary)
CC(C)[C@H](N)C(=O)N[C@@H](CCCCN)C(O)=O,7.47,15:4:13,carboxylic_acid:amine_primary:amine_primary,L-Valyl-L-lysine,15:4:13,carboxylic_acid:amine_primary:amine_primary,15(carboxylic_acid) > 4(amine_primary) > 13(amine_primary)
CC(C)[C@H](N)C(=O)N[C@@H](CCCCN)C(O)=O,3.1,15:4:13,carboxylic_acid:amine_primary:amine_primary,L-Valyl-L-lysine,15:4:13,carboxylic_acid:amine_primary:amine_primary,15(carboxylic_acid) > 4(amine_primary) > 13(amine_primary)
CC[C@H](C)[C@H](NC(=O)[C@@H](N)CC(C)C)C(O)=O,7.78,15:9,carboxylic_acid:amine_primary,L-Leucyl-L-isoleucine,15:9,carboxylic_acid:amine_primary,15(carboxylic_acid) > 9(amine_primary)
CC[C@H](C)[C@H](NC(=O)[C@@H](N)CC(C)C)C(O)=O,3.42,15:9,carboxylic_acid:amine_primary,L-Leucyl-L-isoleucine,15:9,carboxylic_acid:amine_primary,15(carboxylic_acid) > 9(amine_primary)
CC[C@H](C)[C@H](NC(=O)[C@H](N)CC(C)C)C(O)=O,8.09,15:9,carboxylic_acid:amine_primary,D-Leucyl-L-isoleucine,15:9,carboxylic_acid:amine_primary,15(carboxylic_acid) > 9(amine_primary)
CC[C@H](C)[C@H](NC(=O)[C@H](N)CC(C)C)C(O)=O,3.06,15:9,carboxylic_acid:amine_primary,D-Leucyl-L-isoleucine,15:9,carboxylic_acid:amine_primary,15(carboxylic_acid) > 9(amine_primary)
CC(C)C[C@H](N)C(=O)N[C@@H](Cc1ccccc1)C(O)=O,7.68,18:5,carboxylic_acid:amine_primary,L-Leucyl-L-phenylalanine,18:5,carboxylic_acid:amine_primary,18(carboxylic_acid) > 5(amine_primary)
CC(C)C[C@H](N)C(=O)N[C@@H](Cc1ccccc1)C(O)=O,3.18,18:5,carboxylic_acid:amine_primary,L-Leucyl-L-phenylalanine,18:5,carboxylic_acid:amine_primary,18(carboxylic_acid) > 5(amine_primary)
CC(C)C[C@H](N)C(=O)N[C@H](Cc1ccccc1)C(O)=O,8.15,18:5,carboxylic_acid:amine_primary,L-Leucyl-D-phenylalanine,18:5,carboxylic_acid:amine_primary,18(carboxylic_acid) > 5(amine_primary)
CC(C)C[C@H](N)C(=O)N[C@H](Cc1ccccc1)C(O)=O,2.89,18:5,carboxylic_acid:amine_primary,L-Leucyl-D-phenylalanine,18:5,carboxylic_acid:amine_primary,18(carboxylic_acid) > 5(amine_primary)
CC(C)C[C@H](N)C(=O)N[C@@H](Cc1ccc(O)cc1)C(O)=O,10.13,19:5:8,carboxylic_acid:amine_primary:amine_secondary,L-Leucyl-L-tyrosine,19:5:8,carboxylic_acid:amine_primary:amine_secondary,19(carboxylic_acid) > 5(amine_primary) > 8(amine_secondary)
CC(C)C[C@H](N)C(=O)N[C@@H](Cc1ccc(O)cc1)C(O)=O,7.79,19:5:8,carboxylic_acid:amine_primary:amine_secondary,L-Leucyl-L-tyrosine,19:5:8,carboxylic_acid:amine_primary:amine_secondary,19(carboxylic_acid) > 5(amine_primary) > 8(amine_secondary)