SMILES,pKa,Dissociable_Atoms,Functional_Group,Name,Dissociable_Atoms_Ordered,Functional_Group_Ordered,Dissociation_Order
CCCCC(CCCC)(C(O)=O)C(O)=O,7.7,10:13,carboxylic_acid:carboxylic_acid,"Nonane-5,5-dicarboxylic acid (Dibutylmalonic acid)",10:13,carboxylic_acid:carboxylic_acid,10(carboxylic_acid) > 13(carboxylic_acid)
CCCCC(CCCC)(C(O)=O)C(O)=O,7.33,10:13,carboxylic_acid:carboxylic_acid,"Nonane-5,5-dicarboxylic acid (Dibutylmalonic acid)",10:13,carboxylic_acid:carboxylic_acid,10(carboxylic_acid) > 13(carboxylic_acid)
CCCCC(CCCC)(C(O)=O)C(O)=O,1.93,10:13,carboxylic_acid:carboxylic_acid,"Nonane-5,5-dicarboxylic acid (Dibutylmalonic acid)",10:13,carboxylic_acid:carboxylic_acid,10(carboxylic_acid) > 13(carboxylic_acid)
CCCCC(CCCC)(C(O)=O)C(O)=O,2.16,10:13,carboxylic_acid:carboxylic_acid,"Nonane-5,5-dicarboxylic acid (Dibutylmalonic acid)",10:13,carboxylic_acid:carboxylic_acid,10(carboxylic_acid) > 13(carboxylic_acid)
OC(=O)C1(CC1)C(O)=O,7.19,0:7,carboxylic_acid:carboxylic_acid,"Cyclopropane-1,1-dicarboxylic acid",0:7,carboxylic_acid:carboxylic_acid,0(carboxylic_acid) > 7(carboxylic_acid)
OC(=O)C1(CC1)C(O)=O,6.9,0:7,carboxylic_acid:carboxylic_acid,"Cyclopropane-1,1-dicarboxylic acid",0:7,carboxylic_acid:carboxylic_acid,0(carboxylic_acid) > 7(carboxylic_acid)
OC(=O)C1(CC1)C(O)=O,1.62,0:7,carboxylic_acid:carboxylic_acid,"Cyclopropane-1,1-dicarboxylic acid",0:7,carboxylic_acid:carboxylic_acid,0(carboxylic_acid) > 7(carboxylic_acid)
OC(=O)C1(CC1)C(O)=O,1.49,0:7,carboxylic_acid:carboxylic_acid,"Cyclopropane-1,1-dicarboxylic acid",0:7,carboxylic_acid:carboxylic_acid,0(carboxylic_acid) > 7(carboxylic_acid)
OC(=O)C1(CCC1)C(O)=O,5.47,0:8,carboxylic_acid:carboxylic_acid,"Cyclobutane-1,1-dicarboxylic acid",0:8,carboxylic_acid:carboxylic_acid,0(carboxylic_acid) > 8(carboxylic_acid)
OC(=O)C1(CCC1)C(O)=O,5.25,0:8,carboxylic_acid:carboxylic_acid,"Cyclobutane-1,1-dicarboxylic acid",0:8,carboxylic_acid:carboxylic_acid,0(carboxylic_acid) > 8(carboxylic_acid)
OC(=O)C1(CCC1)C(O)=O,2.94,0:8,carboxylic_acid:carboxylic_acid,"Cyclobutane-1,1-dicarboxylic acid",0:8,carboxylic_acid:carboxylic_acid,0(carboxylic_acid) > 8(carboxylic_acid)
OC(=O)C1(CCC1)C(O)=O,2.85,0:8,carboxylic_acid:carboxylic_acid,"Cyclobutane-1,1-dicarboxylic acid",0:8,carboxylic_acid:carboxylic_acid,0(carboxylic_acid) > 8(carboxylic_acid)
OC(=O)C1(CCCC1)C(O)=O,5.79,0:9,carboxylic_acid:carboxylic_acid,"Cyclopentane-1,1-dicarboxylic acid",0:9,carboxylic_acid:carboxylic_acid,0(carboxylic_acid) > 9(carboxylic_acid)
OC(=O)C1(CCCC1)C(O)=O,5.49,0:9,carboxylic_acid:carboxylic_acid,"Cyclopentane-1,1-dicarboxylic acid",0:9,carboxylic_acid:carboxylic_acid,0(carboxylic_acid) > 9(carboxylic_acid)
OC(=O)C1(CCCC1)C(O)=O,3.07,0:9,carboxylic_acid:carboxylic_acid,"Cyclopentane-1,1-dicarboxylic acid",0:9,carboxylic_acid:carboxylic_acid,0(carboxylic_acid) > 9(carboxylic_acid)
OC(=O)C1(CCCC1)C(O)=O,2.96,0:9,carboxylic_acid:carboxylic_acid,"Cyclopentane-1,1-dicarboxylic acid",0:9,carboxylic_acid:carboxylic_acid,0(carboxylic_acid) > 9(carboxylic_acid)
OC(=O)C1(CCCCC1)C(O)=O,5.7,0:10,carboxylic_acid:carboxylic_acid,"Cyclohexane-1,1-dicarboxylic acid",0:10,carboxylic_acid:carboxylic_acid,0(carboxylic_acid) > 10(carboxylic_acid)
OC(=O)C1(CCCCC1)C(O)=O,3.3,0:10,carboxylic_acid:carboxylic_acid,"Cyclohexane-1,1-dicarboxylic acid",0:10,carboxylic_acid:carboxylic_acid,0(carboxylic_acid) > 10(carboxylic_acid)
CCC(C(O)=O)(C(O)=O)c1ccccc1,7.01,4:7,carboxylic_acid:carboxylic_acid,"1-Phenylpropane-1,1-dicarboxylic acid (Ethylphenylmalonic acid)",4:7,carboxylic_acid:carboxylic_acid,4(carboxylic_acid) > 7(carboxylic_acid)
CCC(C(O)=O)(C(O)=O)c1ccccc1,1.8,4:7,carboxylic_acid:carboxylic_acid,"1-Phenylpropane-1,1-dicarboxylic acid (Ethylphenylmalonic acid)",4:7,carboxylic_acid:carboxylic_acid,4(carboxylic_acid) > 7(carboxylic_acid)
OC(=O)C(=Cc1ccccc1)C(O)=O,4.77,0:12,carboxylic_acid:carboxylic_acid,"2-Phenylethene-1,1-dicarboxylic acid (Benzalmalonic acid)",0:12,carboxylic_acid:carboxylic_acid,0(carboxylic_acid) > 12(carboxylic_acid)
OC(=O)C(=Cc1ccccc1)C(O)=O,2.11,0:12,carboxylic_acid:carboxylic_acid,"2-Phenylethene-1,1-dicarboxylic acid (Benzalmalonic acid)",0:12,carboxylic_acid:carboxylic_acid,0(carboxylic_acid) > 12(carboxylic_acid)
OC(=O)CCC(O)=O,5.24,0:6,carboxylic_acid:carboxylic_acid,Butanedioic acid (Succinic acid),0:6,carboxylic_acid:carboxylic_acid,0(carboxylic_acid) > 6(carboxylic_acid)
OC(=O)CCC(O)=O,5.31,0:6,carboxylic_acid:carboxylic_acid,Butanedioic acid (Succinic acid),0:6,carboxylic_acid:carboxylic_acid,0(carboxylic_acid) > 6(carboxylic_acid)
OC(=O)CCC(O)=O,5.2,0:6,carboxylic_acid:carboxylic_acid,Butanedioic acid (Succinic acid),0:6,carboxylic_acid:carboxylic_acid,0(carboxylic_acid) > 6(carboxylic_acid)
OC(=O)CCC(O)=O,5.29,0:6,carboxylic_acid:carboxylic_acid,Butanedioic acid (Succinic acid),0:6,carboxylic_acid:carboxylic_acid,0(carboxylic_acid) > 6(carboxylic_acid)
OC(=O)CCC(O)=O,5.08,0:6,carboxylic_acid:carboxylic_acid,Butanedioic acid (Succinic acid),0:6,carboxylic_acid:carboxylic_acid,0(carboxylic_acid) > 6(carboxylic_acid)
OC(=O)CCC(O)=O,5.12,0:6,carboxylic_acid:carboxylic_acid,Butanedioic acid (Succinic acid),0:6,carboxylic_acid:carboxylic_acid,0(carboxylic_acid) > 6(carboxylic_acid)
OC(=O)CCC(O)=O,5.14,0:6,carboxylic_acid:carboxylic_acid,Butanedioic acid (Succinic acid),0:6,carboxylic_acid:carboxylic_acid,0(carboxylic_acid) > 6(carboxylic_acid)
OC(=O)CCC(O)=O,5.3,0:6,carboxylic_acid:carboxylic_acid,Butanedioic acid (Succinic acid),0:6,carboxylic_acid:carboxylic_acid,0(carboxylic_acid) > 6(carboxylic_acid)
OC(=O)CCC(O)=O,5.11,0:6,carboxylic_acid:carboxylic_acid,Butanedioic acid (Succinic acid),0:6,carboxylic_acid:carboxylic_acid,0(carboxylic_acid) > 6(carboxylic_acid)
OC(=O)CCC(O)=O,5.15,0:6,carboxylic_acid:carboxylic_acid,Butanedioic acid (Succinic acid),0:6,carboxylic_acid:carboxylic_acid,0(carboxylic_acid) > 6(carboxylic_acid)
OC(=O)CCC(O)=O,5.44,0:6,carboxylic_acid:carboxylic_acid,Butanedioic acid (Succinic acid),0:6,carboxylic_acid:carboxylic_acid,0(carboxylic_acid) > 6(carboxylic_acid)
OC(=O)CCC(O)=O,5.21,0:6,carboxylic_acid:carboxylic_acid,Butanedioic acid (Succinic acid),0:6,carboxylic_acid:carboxylic_acid,0(carboxylic_acid) > 6(carboxylic_acid)
OC(=O)CCC(O)=O,5.33,0:6,carboxylic_acid:carboxylic_acid,Butanedioic acid (Succinic acid),0:6,carboxylic_acid:carboxylic_acid,0(carboxylic_acid) > 6(carboxylic_acid)
OC(=O)CCC(O)=O,5.35,0:6,carboxylic_acid:carboxylic_acid,Butanedioic acid (Succinic acid),0:6,carboxylic_acid:carboxylic_acid,0(carboxylic_acid) > 6(carboxylic_acid)
OC(=O)CCC(O)=O,5.4,0:6,carboxylic_acid:carboxylic_acid,Butanedioic acid (Succinic acid),0:6,carboxylic_acid:carboxylic_acid,0(carboxylic_acid) > 6(carboxylic_acid)
OC(=O)CCC(O)=O,5.49,0:6,carboxylic_acid:carboxylic_acid,Butanedioic acid (Succinic acid),0:6,carboxylic_acid:carboxylic_acid,0(carboxylic_acid) > 6(carboxylic_acid)
OC(=O)CCC(O)=O,5.649,0:6,carboxylic_acid:carboxylic_acid,Butanedioic acid (Succinic acid),0:6,carboxylic_acid:carboxylic_acid,0(carboxylic_acid) > 6(carboxylic_acid)
OC(=O)CCC(O)=O,5.636,0:6,carboxylic_acid:carboxylic_acid,Butanedioic acid (Succinic acid),0:6,carboxylic_acid:carboxylic_acid,0(carboxylic_acid) > 6(carboxylic_acid)
OC(=O)CCC(O)=O,5.654,0:6,carboxylic_acid:carboxylic_acid,Butanedioic acid (Succinic acid),0:6,carboxylic_acid:carboxylic_acid,0(carboxylic_acid) > 6(carboxylic_acid)
OC(=O)CCC(O)=O,3.99,0:6,carboxylic_acid:carboxylic_acid,Butanedioic acid (Succinic acid),0:6,carboxylic_acid:carboxylic_acid,0(carboxylic_acid) > 6(carboxylic_acid)
OC(=O)CCC(O)=O,4.05,0:6,carboxylic_acid:carboxylic_acid,Butanedioic acid (Succinic acid),0:6,carboxylic_acid:carboxylic_acid,0(carboxylic_acid) > 6(carboxylic_acid)
OC(=O)CCC(O)=O,3.94,0:6,carboxylic_acid:carboxylic_acid,Butanedioic acid (Succinic acid),0:6,carboxylic_acid:carboxylic_acid,0(carboxylic_acid) > 6(carboxylic_acid)
OC(=O)CCC(O)=O,4.03,0:6,carboxylic_acid:carboxylic_acid,Butanedioic acid (Succinic acid),0:6,carboxylic_acid:carboxylic_acid,0(carboxylic_acid) > 6(carboxylic_acid)
OC(=O)CCC(O)=O,4.1,0:6,carboxylic_acid:carboxylic_acid,Butanedioic acid (Succinic acid),0:6,carboxylic_acid:carboxylic_acid,0(carboxylic_acid) > 6(carboxylic_acid)
OC(=O)CCC(O)=O,3.95,0:6,carboxylic_acid:carboxylic_acid,Butanedioic acid (Succinic acid),0:6,carboxylic_acid:carboxylic_acid,0(carboxylic_acid) > 6(carboxylic_acid)
OC(=O)CCC(O)=O,4.23,0:6,carboxylic_acid:carboxylic_acid,Butanedioic acid (Succinic acid),0:6,carboxylic_acid:carboxylic_acid,0(carboxylic_acid) > 6(carboxylic_acid)
OC(=O)CCC(O)=O,4.07,0:6,carboxylic_acid:carboxylic_acid,Butanedioic acid (Succinic acid),0:6,carboxylic_acid:carboxylic_acid,0(carboxylic_acid) > 6(carboxylic_acid)
OC(=O)CCC(O)=O,4.09,0:6,carboxylic_acid:carboxylic_acid,Butanedioic acid (Succinic acid),0:6,carboxylic_acid:carboxylic_acid,0(carboxylic_acid) > 6(carboxylic_acid)
OC(=O)CCC(O)=O,4.15,0:6,carboxylic_acid:carboxylic_acid,Butanedioic acid (Succinic acid),0:6,carboxylic_acid:carboxylic_acid,0(carboxylic_acid) > 6(carboxylic_acid)
OC(=O)CCC(O)=O,4.22,0:6,carboxylic_acid:carboxylic_acid,Butanedioic acid (Succinic acid),0:6,carboxylic_acid:carboxylic_acid,0(carboxylic_acid) > 6(carboxylic_acid)
OC(=O)CCC(O)=O,4.32,0:6,carboxylic_acid:carboxylic_acid,Butanedioic acid (Succinic acid),0:6,carboxylic_acid:carboxylic_acid,0(carboxylic_acid) > 6(carboxylic_acid)
OC(=O)CCC(O)=O,4.26,0:6,carboxylic_acid:carboxylic_acid,Butanedioic acid (Succinic acid),0:6,carboxylic_acid:carboxylic_acid,0(carboxylic_acid) > 6(carboxylic_acid)
OC(=O)CCC(O)=O,4.245,0:6,carboxylic_acid:carboxylic_acid,Butanedioic acid (Succinic acid),0:6,carboxylic_acid:carboxylic_acid,0(carboxylic_acid) > 6(carboxylic_acid)
OC(=O)CCC(O)=O,4.207,0:6,carboxylic_acid:carboxylic_acid,Butanedioic acid (Succinic acid),0:6,carboxylic_acid:carboxylic_acid,0(carboxylic_acid) > 6(carboxylic_acid)
OC(=O)CCC(O)=O,4.188,0:6,carboxylic_acid:carboxylic_acid,Butanedioic acid (Succinic acid),0:6,carboxylic_acid:carboxylic_acid,0(carboxylic_acid) > 6(carboxylic_acid)
CC(CC(O)=O)C(O)=O,5.35,4:7,carboxylic_acid:carboxylic_acid,"DL-Propane-1,2-dicarboxylic acid (Methylsuccinic acid)",4:7,carboxylic_acid:carboxylic_acid,4(carboxylic_acid) > 7(carboxylic_acid)
CC(CC(O)=O)C(O)=O,5.13,4:7,carboxylic_acid:carboxylic_acid,"DL-Propane-1,2-dicarboxylic acid (Methylsuccinic acid)",4:7,carboxylic_acid:carboxylic_acid,4(carboxylic_acid) > 7(carboxylic_acid)
CC(CC(O)=O)C(O)=O,5.79,4:7,carboxylic_acid:carboxylic_acid,"DL-Propane-1,2-dicarboxylic acid (Methylsuccinic acid)",4:7,carboxylic_acid:carboxylic_acid,4(carboxylic_acid) > 7(carboxylic_acid)
CC(CC(O)=O)C(O)=O,3.88,4:7,carboxylic_acid:carboxylic_acid,"DL-Propane-1,2-dicarboxylic acid (Methylsuccinic acid)",4:7,carboxylic_acid:carboxylic_acid,4(carboxylic_acid) > 7(carboxylic_acid)
CC(CC(O)=O)C(O)=O,3.86,4:7,carboxylic_acid:carboxylic_acid,"DL-Propane-1,2-dicarboxylic acid (Methylsuccinic acid)",4:7,carboxylic_acid:carboxylic_acid,4(carboxylic_acid) > 7(carboxylic_acid)
CC(CC(O)=O)C(O)=O,4.1,4:7,carboxylic_acid:carboxylic_acid,"DL-Propane-1,2-dicarboxylic acid (Methylsuccinic acid)",4:7,carboxylic_acid:carboxylic_acid,4(carboxylic_acid) > 7(carboxylic_acid)
CC(C)(CC(O)=O)C(O)=O,5.86,5:8,carboxylic_acid:carboxylic_acid,"2-Methylpropane-1,2-dicarboxylic acid (2,2-Dimethylsuccinic acid)",5:8,carboxylic_acid:carboxylic_acid,5(carboxylic_acid) > 8(carboxylic_acid)
CC(C)(CC(O)=O)C(O)=O,5.81,5:8,carboxylic_acid:carboxylic_acid,"2-Methylpropane-1,2-dicarboxylic acid (2,2-Dimethylsuccinic acid)",5:8,carboxylic_acid:carboxylic_acid,5(carboxylic_acid) > 8(carboxylic_acid)
CC(C)(CC(O)=O)C(O)=O,3.84,5:8,carboxylic_acid:carboxylic_acid,"2-Methylpropane-1,2-dicarboxylic acid (2,2-Dimethylsuccinic acid)",5:8,carboxylic_acid:carboxylic_acid,5(carboxylic_acid) > 8(carboxylic_acid)
CC(C)(CC(O)=O)C(O)=O,3.83,5:8,carboxylic_acid:carboxylic_acid,"2-Methylpropane-1,2-dicarboxylic acid (2,2-Dimethylsuccinic acid)",5:8,carboxylic_acid:carboxylic_acid,5(carboxylic_acid) > 8(carboxylic_acid)
CC(C(C)C(O)=O)C(O)=O,4.85,5:8,carboxylic_acid:carboxylic_acid,"meso-Butane-2,3-dicarboxylic acid (meso-2,3-Dimethylsuccinic acid)",5:8,carboxylic_acid:carboxylic_acid,5(carboxylic_acid) > 8(carboxylic_acid)
CC(C(C)C(O)=O)C(O)=O,5.3,5:8,carboxylic_acid:carboxylic_acid,"meso-Butane-2,3-dicarboxylic acid (meso-2,3-Dimethylsuccinic acid)",5:8,carboxylic_acid:carboxylic_acid,5(carboxylic_acid) > 8(carboxylic_acid)
CC(C(C)C(O)=O)C(O)=O,3.5,5:8,carboxylic_acid:carboxylic_acid,"meso-Butane-2,3-dicarboxylic acid (meso-2,3-Dimethylsuccinic acid)",5:8,carboxylic_acid:carboxylic_acid,5(carboxylic_acid) > 8(carboxylic_acid)
CC(C(C)C(O)=O)C(O)=O,3.67,5:8,carboxylic_acid:carboxylic_acid,"meso-Butane-2,3-dicarboxylic acid (meso-2,3-Dimethylsuccinic acid)",5:8,carboxylic_acid:carboxylic_acid,5(carboxylic_acid) > 8(carboxylic_acid)
CC(C)(C(O)=O)C(C)(C)C(O)=O,7.35,4:10,carboxylic_acid:carboxylic_acid,"2,2,3,3-Tetramethylbutane-2,3-dicarboxylic acid (Tetramethylsuccinic acid)",4:10,carboxylic_acid:carboxylic_acid,4(carboxylic_acid) > 10(carboxylic_acid)
CC(C)(C(O)=O)C(C)(C)C(O)=O,3.53,4:10,carboxylic_acid:carboxylic_acid,"2,2,3,3-Tetramethylbutane-2,3-dicarboxylic acid (Tetramethylsuccinic acid)",4:10,carboxylic_acid:carboxylic_acid,4(carboxylic_acid) > 10(carboxylic_acid)
CCC(CC)(C(O)=O)C(CC)(CC)C(O)=O,8.06,6:14,carboxylic_acid:carboxylic_acid,"2,2,3,3-Tetraethylbutane-2,3-dicarboxylic acid (Tetraethylsuccinic acid)",6:14,carboxylic_acid:carboxylic_acid,6(carboxylic_acid) > 14(carboxylic_acid)
CCC(CC)(C(O)=O)C(CC)(CC)C(O)=O,3.39,6:14,carboxylic_acid:carboxylic_acid,"2,2,3,3-Tetraethylbutane-2,3-dicarboxylic acid (Tetraethylsuccinic acid)",6:14,carboxylic_acid:carboxylic_acid,6(carboxylic_acid) > 14(carboxylic_acid)
OC(=O)\C=C/C(O)=O,5.84,0:6,carboxylic_acid:carboxylic_acid,cis-Butenedioic acid (Maleic acid),0:6,carboxylic_acid:carboxylic_acid,0(carboxylic_acid) > 6(carboxylic_acid)
OC(=O)\C=C/C(O)=O,6.01,0:6,carboxylic_acid:carboxylic_acid,cis-Butenedioic acid (Maleic acid),0:6,carboxylic_acid:carboxylic_acid,0(carboxylic_acid) > 6(carboxylic_acid)
OC(=O)\C=C/C(O)=O,5.82,0:6,carboxylic_acid:carboxylic_acid,cis-Butenedioic acid (Maleic acid),0:6,carboxylic_acid:carboxylic_acid,0(carboxylic_acid) > 6(carboxylic_acid)
OC(=O)\C=C/C(O)=O,6.02,0:6,carboxylic_acid:carboxylic_acid,cis-Butenedioic acid (Maleic acid),0:6,carboxylic_acid:carboxylic_acid,0(carboxylic_acid) > 6(carboxylic_acid)
OC(=O)\C=C/C(O)=O,5.61,0:6,carboxylic_acid:carboxylic_acid,cis-Butenedioic acid (Maleic acid),0:6,carboxylic_acid:carboxylic_acid,0(carboxylic_acid) > 6(carboxylic_acid)
OC(=O)\C=C/C(O)=O,5.6,0:6,carboxylic_acid:carboxylic_acid,cis-Butenedioic acid (Maleic acid),0:6,carboxylic_acid:carboxylic_acid,0(carboxylic_acid) > 6(carboxylic_acid)
OC(=O)\C=C/C(O)=O,5.51,0:6,carboxylic_acid:carboxylic_acid,cis-Butenedioic acid (Maleic acid),0:6,carboxylic_acid:carboxylic_acid,0(carboxylic_acid) > 6(carboxylic_acid)
OC(=O)\C=C/C(O)=O,5.57,0:6,carboxylic_acid:carboxylic_acid,cis-Butenedioic acid (Maleic acid),0:6,carboxylic_acid:carboxylic_acid,0(carboxylic_acid) > 6(carboxylic_acid)
OC(=O)\C=C/C(O)=O,5.59,0:6,carboxylic_acid:carboxylic_acid,cis-Butenedioic acid (Maleic acid),0:6,carboxylic_acid:carboxylic_acid,0(carboxylic_acid) > 6(carboxylic_acid)
OC(=O)\C=C/C(O)=O,5.69,0:6,carboxylic_acid:carboxylic_acid,cis-Butenedioic acid (Maleic acid),0:6,carboxylic_acid:carboxylic_acid,0(carboxylic_acid) > 6(carboxylic_acid)
OC(=O)\C=C/C(O)=O,6.27,0:6,carboxylic_acid:carboxylic_acid,cis-Butenedioic acid (Maleic acid),0:6,carboxylic_acid:carboxylic_acid,0(carboxylic_acid) > 6(carboxylic_acid)
OC(=O)\C=C/C(O)=O,1.75,0:6,carboxylic_acid:carboxylic_acid,cis-Butenedioic acid (Maleic acid),0:6,carboxylic_acid:carboxylic_acid,0(carboxylic_acid) > 6(carboxylic_acid)
OC(=O)\C=C/C(O)=O,1.76,0:6,carboxylic_acid:carboxylic_acid,cis-Butenedioic acid (Maleic acid),0:6,carboxylic_acid:carboxylic_acid,0(carboxylic_acid) > 6(carboxylic_acid)
OC(=O)\C=C/C(O)=O,1.64,0:6,carboxylic_acid:carboxylic_acid,cis-Butenedioic acid (Maleic acid),0:6,carboxylic_acid:carboxylic_acid,0(carboxylic_acid) > 6(carboxylic_acid)
OC(=O)\C=C/C(O)=O,1.65,0:6,carboxylic_acid:carboxylic_acid,cis-Butenedioic acid (Maleic acid),0:6,carboxylic_acid:carboxylic_acid,0(carboxylic_acid) > 6(carboxylic_acid)
OC(=O)\C=C/C(O)=O,1.67,0:6,carboxylic_acid:carboxylic_acid,cis-Butenedioic acid (Maleic acid),0:6,carboxylic_acid:carboxylic_acid,0(carboxylic_acid) > 6(carboxylic_acid)
OC(=O)\C=C/C(O)=O,1.78,0:6,carboxylic_acid:carboxylic_acid,cis-Butenedioic acid (Maleic acid),0:6,carboxylic_acid:carboxylic_acid,0(carboxylic_acid) > 6(carboxylic_acid)
OC(=O)\C=C/C(O)=O,1.92,0:6,carboxylic_acid:carboxylic_acid,cis-Butenedioic acid (Maleic acid),0:6,carboxylic_acid:carboxylic_acid,0(carboxylic_acid) > 6(carboxylic_acid)
CC(=C/C(O)=O)/C(O)=O,5.6,4:7,carboxylic_acid:carboxylic_acid,"cis-Propene-1,2-dicarboxylic acid (Citraconic acid)",4:7,carboxylic_acid:carboxylic_acid,4(carboxylic_acid) > 7(carboxylic_acid)
CC(=C/C(O)=O)/C(O)=O,5.46,4:7,carboxylic_acid:carboxylic_acid,"cis-Propene-1,2-dicarboxylic acid (Citraconic acid)",4:7,carboxylic_acid:carboxylic_acid,4(carboxylic_acid) > 7(carboxylic_acid)
CC(=C/C(O)=O)/C(O)=O,5.73,4:7,carboxylic_acid:carboxylic_acid,"cis-Propene-1,2-dicarboxylic acid (Citraconic acid)",4:7,carboxylic_acid:carboxylic_acid,4(carboxylic_acid) > 7(carboxylic_acid)
CC(=C/C(O)=O)/C(O)=O,6.16,4:7,carboxylic_acid:carboxylic_acid,"cis-Propene-1,2-dicarboxylic acid (Citraconic acid)",4:7,carboxylic_acid:carboxylic_acid,4(carboxylic_acid) > 7(carboxylic_acid)
CC(=C/C(O)=O)/C(O)=O,2.2,4:7,carboxylic_acid:carboxylic_acid,"cis-Propene-1,2-dicarboxylic acid (Citraconic acid)",4:7,carboxylic_acid:carboxylic_acid,4(carboxylic_acid) > 7(carboxylic_acid)
CC(=C/C(O)=O)/C(O)=O,2.23,4:7,carboxylic_acid:carboxylic_acid,"cis-Propene-1,2-dicarboxylic acid (Citraconic acid)",4:7,carboxylic_acid:carboxylic_acid,4(carboxylic_acid) > 7(carboxylic_acid)
CC(=C/C(O)=O)/C(O)=O,2.39,4:7,carboxylic_acid:carboxylic_acid,"cis-Propene-1,2-dicarboxylic acid (Citraconic acid)",4:7,carboxylic_acid:carboxylic_acid,4(carboxylic_acid) > 7(carboxylic_acid)
CC(=C/C(O)=O)/C(O)=O,2.29,4:7,carboxylic_acid:carboxylic_acid,"cis-Propene-1,2-dicarboxylic acid (Citraconic acid)",4:7,carboxylic_acid:carboxylic_acid,4(carboxylic_acid) > 7(carboxylic_acid)
OC(=O)/C=C/C(O)=O,4.09,0:6,carboxylic_acid:carboxylic_acid,trans-Butenedioic acid (Fumaric acid),0:6,carboxylic_acid:carboxylic_acid,0(carboxylic_acid) > 6(carboxylic_acid)
OC(=O)/C=C/C(O)=O,3.92,0:6,carboxylic_acid:carboxylic_acid,trans-Butenedioic acid (Fumaric acid),0:6,carboxylic_acid:carboxylic_acid,0(carboxylic_acid) > 6(carboxylic_acid)
OC(=O)/C=C/C(O)=O,3.9,0:6,carboxylic_acid:carboxylic_acid,trans-Butenedioic acid (Fumaric acid),0:6,carboxylic_acid:carboxylic_acid,0(carboxylic_acid) > 6(carboxylic_acid)
OC(=O)/C=C/C(O)=O,3.95,0:6,carboxylic_acid:carboxylic_acid,trans-Butenedioic acid (Fumaric acid),0:6,carboxylic_acid:carboxylic_acid,0(carboxylic_acid) > 6(carboxylic_acid)
OC(=O)/C=C/C(O)=O,4.01,0:6,carboxylic_acid:carboxylic_acid,trans-Butenedioic acid (Fumaric acid),0:6,carboxylic_acid:carboxylic_acid,0(carboxylic_acid) > 6(carboxylic_acid)
OC(=O)/C=C/C(O)=O,4.17,0:6,carboxylic_acid:carboxylic_acid,trans-Butenedioic acid (Fumaric acid),0:6,carboxylic_acid:carboxylic_acid,0(carboxylic_acid) > 6(carboxylic_acid)
OC(=O)/C=C/C(O)=O,4.48,0:6,carboxylic_acid:carboxylic_acid,trans-Butenedioic acid (Fumaric acid),0:6,carboxylic_acid:carboxylic_acid,0(carboxylic_acid) > 6(carboxylic_acid)
OC(=O)/C=C/C(O)=O,2.84,0:6,carboxylic_acid:carboxylic_acid,trans-Butenedioic acid (Fumaric acid),0:6,carboxylic_acid:carboxylic_acid,0(carboxylic_acid) > 6(carboxylic_acid)
OC(=O)/C=C/C(O)=O,2.77,0:6,carboxylic_acid:carboxylic_acid,trans-Butenedioic acid (Fumaric acid),0:6,carboxylic_acid:carboxylic_acid,0(carboxylic_acid) > 6(carboxylic_acid)