SMILES,pKa,Dissociable_Atoms,Functional_Group,Name
N[C@@H](Cc1c[nH]cn1)C(=O)NCC(O)=O,7.6,13:0:5,carboxylic_acid:amine_primary:amine_secondary,L-Histidylglycine
N[C@@H](Cc1c[nH]cn1)C(=O)NCC(O)=O,5.88,13:0:5,carboxylic_acid:amine_primary:amine_secondary,L-Histidylglycine
N[C@@H](Cc1c[nH]cn1)C(=O)NCC(O)=O,2.72,13:0:5,carboxylic_acid:amine_primary:amine_secondary,L-Histidylglycine
NCCC(=O)NCCC(O)=O,9.36,9:0,carboxylic_acid:amine_primary,beta-Alanyl-beta-alanine
NCCC(=O)NCCC(O)=O,3.95,9:0,carboxylic_acid:amine_primary,beta-Alanyl-beta-alanine
NCCC(=O)NC(Cc1[nH]cnc1)C(O)=O,9.35,14:0:5,carboxylic_acid:amine_primary:amine_secondary,beta-Alanyl-L-histidine (L-Carnosine)
NCCC(=O)NC(Cc1[nH]cnc1)C(O)=O,9.04,14:0:5,carboxylic_acid:amine_primary:amine_secondary,beta-Alanyl-L-histidine (L-Carnosine)
NCCC(=O)NC(Cc1[nH]cnc1)C(O)=O,6.79,14:0:5,carboxylic_acid:amine_primary:amine_secondary,beta-Alanyl-L-histidine (L-Carnosine)
NCCC(=O)NC(Cc1[nH]cnc1)C(O)=O,6.59,14:0:5,carboxylic_acid:amine_primary:amine_secondary,beta-Alanyl-L-histidine (L-Carnosine)
NCCC(=O)NC(Cc1[nH]cnc1)C(O)=O,2.54,14:0:5,carboxylic_acid:amine_primary:amine_secondary,beta-Alanyl-L-histidine (L-Carnosine)
NCCC(=O)NC(Cc1[nH]cnc1)C(O)=O,2.63,14:0:5,carboxylic_acid:amine_primary:amine_secondary,beta-Alanyl-L-histidine (L-Carnosine)
Cn1cncc1CC(NC(=O)CCN)C(O)=O,9.33,15:13,carboxylic_acid:amine_primary,beta-Alanyl-L-1-methylhistidine (L-Anserine)
Cn1cncc1CC(NC(=O)CCN)C(O)=O,7.03,15:13,carboxylic_acid:amine_primary,beta-Alanyl-L-1-methylhistidine (L-Anserine)
C[C@H](N)C(=O)N[C@@H](C)C(O)=O,8.15,9:2,carboxylic_acid:amine_primary,L-Alanyl-L-alanine
C[C@H](N)C(=O)N[C@@H](C)C(O)=O,3.27,9:2,carboxylic_acid:amine_primary,L-Alanyl-L-alanine
C[C@H](N)C(=O)N[C@H](C)C(O)=O,8.29,9:2,carboxylic_acid:amine_primary,L-Alanyl-D-alanine
C[C@H](N)C(=O)N[C@H](C)C(O)=O,3.13,9:2,carboxylic_acid:amine_primary,L-Alanyl-D-alanine
C[C@H](N)C(=O)NC(C)(C)C(O)=O,8.22,10:2,carboxylic_acid:amine_primary,L-Alanyl-2-methylalanine
C[C@H](N)C(=O)NC(C)(C)C(O)=O,3.49,10:2,carboxylic_acid:amine_primary,L-Alanyl-2-methylalanine
CC(C)C[C@H](NC(=O)[C@H](C)N)C(O)=O,8.03,12:10,carboxylic_acid:amine_primary,L-Alanyl-L-leucine
CC(C)C[C@H](NC(=O)[C@H](C)N)C(O)=O,3.34,12:10,carboxylic_acid:amine_primary,L-Alanyl-L-leucine
CC(C)C[C@H](NC(=O)[C@@H](C)N)C(O)=O,8.23,12:10,carboxylic_acid:amine_primary,D-Alanyl-L-leucine
CC(C)C[C@H](NC(=O)[C@@H](C)N)C(O)=O,3.14,12:10,carboxylic_acid:amine_primary,D-Alanyl-L-leucine
C[C@H](N)C(=O)N[C@@H](Cc1ccccc1)C(O)=O,7.9,15:2,carboxylic_acid:amine_primary,L-Alanyl-L-phenylalanine
C[C@H](N)C(=O)N[C@@H](Cc1ccccc1)C(O)=O,3.2,15:2,carboxylic_acid:amine_primary,L-Alanyl-L-phenylalanine
C[C@H](N)C(=O)N[C@H](Cc1ccccc1)C(O)=O,8.13,15:2,carboxylic_acid:amine_primary,L-Alanyl-D-phenylalanine
C[C@H](N)C(=O)N[C@H](Cc1ccccc1)C(O)=O,2.99,15:2,carboxylic_acid:amine_primary,L-Alanyl-D-phenylalanine
C[C@H](N)C(=O)N1CCC[C@H]1C(O)=O,8.4,2:11,amine_primary:carboxylic_acid,L-Alanyl-L-proline
C[C@H](N)C(=O)N1CCC[C@H]1C(O)=O,2.9,2:11,amine_primary:carboxylic_acid,L-Alanyl-L-proline
C[C@H](N)C(=O)N[C@@H](CCCNC(N)=N)C(O)=O,7.95,15:2,carboxylic_acid:amine_primary,L-Alanyl-L-arginine
C[C@H](N)C(=O)N[C@@H](CCCNC(N)=N)C(O)=O,2.99,15:2,carboxylic_acid:amine_primary,L-Alanyl-L-arginine
C[C@H](N)C(=O)N[C@@H](CS)C(O)=O,9.52,10:2:5,carboxylic_acid:amine_primary:amine_secondary,L-Alanyl-L-cysteine
C[C@H](N)C(=O)N[C@@H](CS)C(O)=O,7.98,10:2:5,carboxylic_acid:amine_primary:amine_secondary,L-Alanyl-L-cysteine
C[C@H](N)C(=O)N[C@@H](CS)C(O)=O,2.89,10:2:5,carboxylic_acid:amine_primary:amine_secondary,L-Alanyl-L-cysteine
C[C@H](N)C(=O)N[C@@H](Cc1c[nH]cn1)C(O)=O,8.06,14:2:5,carboxylic_acid:amine_primary:amine_secondary,L-Alanyl-L-histidine
C[C@H](N)C(=O)N[C@@H](Cc1c[nH]cn1)C(O)=O,7.79,14:2:5,carboxylic_acid:amine_primary:amine_secondary,L-Alanyl-L-histidine
C[C@H](N)C(=O)N[C@@H](Cc1c[nH]cn1)C(O)=O,8.86,14:2:5,carboxylic_acid:amine_primary:amine_secondary,L-Alanyl-L-histidine
C[C@H](N)C(=O)N[C@@H](Cc1c[nH]cn1)C(O)=O,6.74,14:2:5,carboxylic_acid:amine_primary:amine_secondary,L-Alanyl-L-histidine
C[C@H](N)C(=O)N[C@@H](Cc1c[nH]cn1)C(O)=O,6.5,14:2:5,carboxylic_acid:amine_primary:amine_secondary,L-Alanyl-L-histidine
C[C@H](N)C(=O)N[C@@H](Cc1c[nH]cn1)C(O)=O,6.85,14:2:5,carboxylic_acid:amine_primary:amine_secondary,L-Alanyl-L-histidine
C[C@H](N)C(=O)N[C@@H](Cc1c[nH]cn1)C(O)=O,2.68,14:2:5,carboxylic_acid:amine_primary:amine_secondary,L-Alanyl-L-histidine
C[C@H](N)C(=O)N[C@@H](Cc1c[nH]cn1)C(O)=O,2.5,14:2:5,carboxylic_acid:amine_primary:amine_secondary,L-Alanyl-L-histidine
C[C@H](N)C(=O)N[C@@H](Cc1c[nH]cn1)C(O)=O,2.76,14:2:5,carboxylic_acid:amine_primary:amine_secondary,L-Alanyl-L-histidine
CC(C)[C@H](N)C(=O)N[C@@H](C)C(O)=O,7.92,11:4,carboxylic_acid:amine_primary,L-Valyl-L-alanine
CC(C)[C@H](N)C(=O)N[C@@H](C)C(O)=O,3.32,11:4,carboxylic_acid:amine_primary,L-Valyl-L-alanine
CC(C)C[C@H](N)C(=O)N[C@@H](C)C(O)=O,8.08,12:5,carboxylic_acid:amine_primary,L-Leucyl-L-alanine
CC(C)C[C@H](N)C(=O)N[C@@H](C)C(O)=O,3.36,12:5,carboxylic_acid:amine_primary,L-Leucyl-L-alanine
CC(C)C[C@H](N)C(=O)N[C@H](C)C(O)=O,8.17,12:5,carboxylic_acid:amine_primary,L-Leucyl-D-alanine
CC(C)C[C@H](N)C(=O)N[C@H](C)C(O)=O,2.98,12:5,carboxylic_acid:amine_primary,L-Leucyl-D-alanine
C[C@H](NC(=O)[C@@H](N)CC(O)=O)C(O)=O,7.99,9:12:6,carboxylic_acid:carboxylic_acid:amine_primary,L-Aspartyl-L-alanine
C[C@H](NC(=O)[C@@H](N)CC(O)=O)C(O)=O,3.61,9:12:6,carboxylic_acid:carboxylic_acid:amine_primary,L-Aspartyl-L-alanine
C[C@H](NC(=O)[C@@H](N)CC(O)=O)C(O)=O,2.73,9:12:6,carboxylic_acid:carboxylic_acid:amine_primary,L-Aspartyl-L-alanine
C[C@H](NC(=O)[C@@H](N)CCC(O)=O)C(O)=O,7.98,10:13:6,carboxylic_acid:carboxylic_acid:amine_primary,L-Glutamyl-L-alanine
C[C@H](NC(=O)[C@@H](N)CCC(O)=O)C(O)=O,4.16,10:13:6,carboxylic_acid:carboxylic_acid:amine_primary,L-Glutamyl-L-alanine
C[C@H](NC(=O)[C@@H](N)CCC(O)=O)C(O)=O,1.2,10:13:6,carboxylic_acid:carboxylic_acid:amine_primary,L-Glutamyl-L-alanine
C[C@H](NC(=O)[C@@H](N)Cc1ccc(O)cc1)C(O)=O,9.98,16:6:2,carboxylic_acid:amine_primary:amine_secondary,L-Tyrosyl-L-alanine
C[C@H](NC(=O)[C@@H](N)Cc1ccc(O)cc1)C(O)=O,7.51,16:6:2,carboxylic_acid:amine_primary:amine_secondary,L-Tyrosyl-L-alanine
C[C@H](NC(=O)[C@@H](N)Cc1ccc(O)cc1)C(O)=O,3.38,16:6:2,carboxylic_acid:amine_primary:amine_secondary,L-Tyrosyl-L-alanine
C[C@@H](NC(=O)[C@@H](N)Cc1ccc(O)cc1)C(O)=O,9.79,16:6:2,carboxylic_acid:amine_primary:amine_secondary,L-Tyrosyl-D-alanine
C[C@@H](NC(=O)[C@@H](N)Cc1ccc(O)cc1)C(O)=O,7.66,16:6:2,carboxylic_acid:amine_primary:amine_secondary,L-Tyrosyl-D-alanine
C[C@@H](NC(=O)[C@@H](N)Cc1ccc(O)cc1)C(O)=O,3.05,16:6:2,carboxylic_acid:amine_primary:amine_secondary,L-Tyrosyl-D-alanine
C[C@H](NC(=O)[C@@H]1CCCN1)C(O)=O,8.98,11:2,carboxylic_acid:amine_secondary,L-Prolyl-L-alanine
C[C@H](NC(=O)[C@@H]1CCCN1)C(O)=O,9.07,11:2,carboxylic_acid:amine_secondary,L-Prolyl-L-alanine
C[C@H](NC(=O)[C@@H]1CCCN1)C(O)=O,3.27,11:2,carboxylic_acid:amine_secondary,L-Prolyl-L-alanine
C[C@H](NC(=O)[C@@H]1CCCN1)C(O)=O,3.08,11:2,carboxylic_acid:amine_secondary,L-Prolyl-L-alanine
C[C@@H](NC(=O)[C@@H]1CCCN1)C(O)=O,9.09,11:2,carboxylic_acid:amine_secondary,L-Prolyl-D-alanine
C[C@@H](NC(=O)[C@@H]1CCCN1)C(O)=O,3.15,11:2,carboxylic_acid:amine_secondary,L-Prolyl-D-alanine
CC(C)[C@H](N)C(=O)N[C@@H](C(C)C)C(O)=O,7.96,13:4,carboxylic_acid:amine_primary,L-Valyl-L-valine
CC(C)[C@H](N)C(=O)N[C@@H](C(C)C)C(O)=O,3.4,13:4,carboxylic_acid:amine_primary,L-Valyl-L-valine
CC(C)[C@H](N)C(=O)N[C@H](C(C)C)C(O)=O,8.22,13:4,carboxylic_acid:amine_primary,L-Valyl-D-valine
CC(C)[C@H](N)C(=O)N[C@H](C(C)C)C(O)=O,3.04,13:4,carboxylic_acid:amine_primary,L-Valyl-D-valine
CC(C)[C@H](N)C(=O)N[C@@H](CCCCN)C(O)=O,10.0,15:4:13,carboxylic_acid:amine_primary:amine_primary,L-Valyl-L-lysine
CC(C)[C@H](N)C(=O)N[C@@H](CCCCN)C(O)=O,7.47,15:4:13,carboxylic_acid:amine_primary:amine_primary,L-Valyl-L-lysine
CC(C)[C@H](N)C(=O)N[C@@H](CCCCN)C(O)=O,3.1,15:4:13,carboxylic_acid:amine_primary:amine_primary,L-Valyl-L-lysine
CC[C@H](C)[C@H](NC(=O)[C@@H](N)CC(C)C)C(O)=O,7.78,15:9,carboxylic_acid:amine_primary,L-Leucyl-L-isoleucine
CC[C@H](C)[C@H](NC(=O)[C@@H](N)CC(C)C)C(O)=O,3.42,15:9,carboxylic_acid:amine_primary,L-Leucyl-L-isoleucine
CC[C@H](C)[C@H](NC(=O)[C@H](N)CC(C)C)C(O)=O,8.09,15:9,carboxylic_acid:amine_primary,D-Leucyl-L-isoleucine
CC[C@H](C)[C@H](NC(=O)[C@H](N)CC(C)C)C(O)=O,3.06,15:9,carboxylic_acid:amine_primary,D-Leucyl-L-isoleucine
CC(C)C[C@H](N)C(=O)N[C@@H](Cc1ccccc1)C(O)=O,7.68,18:5,carboxylic_acid:amine_primary,L-Leucyl-L-phenylalanine
CC(C)C[C@H](N)C(=O)N[C@@H](Cc1ccccc1)C(O)=O,3.18,18:5,carboxylic_acid:amine_primary,L-Leucyl-L-phenylalanine
CC(C)C[C@H](N)C(=O)N[C@H](Cc1ccccc1)C(O)=O,8.15,18:5,carboxylic_acid:amine_primary,L-Leucyl-D-phenylalanine
CC(C)C[C@H](N)C(=O)N[C@H](Cc1ccccc1)C(O)=O,2.89,18:5,carboxylic_acid:amine_primary,L-Leucyl-D-phenylalanine
CC(C)C[C@H](N)C(=O)N[C@@H](Cc1ccc(O)cc1)C(O)=O,10.13,19:5:8,carboxylic_acid:amine_primary:amine_secondary,L-Leucyl-L-tyrosine
CC(C)C[C@H](N)C(=O)N[C@@H](Cc1ccc(O)cc1)C(O)=O,7.79,19:5:8,carboxylic_acid:amine_primary:amine_secondary,L-Leucyl-L-tyrosine
CC(C)C[C@H](N)C(=O)N[C@@H](Cc1ccc(O)cc1)C(O)=O,3.23,19:5:8,carboxylic_acid:amine_primary:amine_secondary,L-Leucyl-L-tyrosine
CC(C)C[C@@H](N)C(=O)N[C@@H](Cc1ccc(O)cc1)C(O)=O,10.36,19:5:8,carboxylic_acid:amine_primary:amine_secondary,D-Leucyl-L-tyrosine
CC(C)C[C@@H](N)C(=O)N[C@@H](Cc1ccc(O)cc1)C(O)=O,8.34,19:5:8,carboxylic_acid:amine_primary:amine_secondary,D-Leucyl-L-tyrosine
CC(C)C[C@@H](N)C(=O)N[C@@H](Cc1ccc(O)cc1)C(O)=O,2.9,19:5:8,carboxylic_acid:amine_primary:amine_secondary,D-Leucyl-L-tyrosine
CC(C)C[C@H](NC(=O)[C@@H](N)Cc1ccccc1)C(O)=O,7.3,18:9,carboxylic_acid:amine_primary,L-Phenylalanyl-L-leucine
CC(C)C[C@H](NC(=O)[C@@H](N)Cc1ccccc1)C(O)=O,3.41,18:9,carboxylic_acid:amine_primary,L-Phenylalanyl-L-leucine
CC(C)C[C@H](NC(=O)[C@@H]1CCCN1)C(O)=O,9.04,14:5,carboxylic_acid:amine_secondary,L-Prolyl-L-leucine
CC(C)C[C@H](NC(=O)[C@@H]1CCCN1)C(O)=O,3.09,14:5,carboxylic_acid:amine_secondary,L-Prolyl-L-leucine
CC(C)C[C@H](NC(=O)[C@@H](N)Cc1ccc(O)cc1)C(O)=O,10.11,19:9:5,carboxylic_acid:amine_primary:amine_secondary,L-Tyrosyl-L-leucine
CC(C)C[C@H](NC(=O)[C@@H](N)Cc1ccc(O)cc1)C(O)=O,7.41,19:9:5,carboxylic_acid:amine_primary:amine_secondary,L-Tyrosyl-L-leucine
CC(C)C[C@H](NC(=O)[C@@H](N)Cc1ccc(O)cc1)C(O)=O,3.39,19:9:5,carboxylic_acid:amine_primary:amine_secondary,L-Tyrosyl-L-leucine
CC(C)C[C@@H](NC(=O)[C@@H](N)Cc1ccc(O)cc1)C(O)=O,10.38,19:9:5,carboxylic_acid:amine_primary:amine_secondary,L-Tyrosyl-D-leucine
CC(C)C[C@@H](NC(=O)[C@@H](N)Cc1ccc(O)cc1)C(O)=O,7.86,19:9:5,carboxylic_acid:amine_primary:amine_secondary,L-Tyrosyl-D-leucine
CC(C)C[C@@H](NC(=O)[C@@H](N)Cc1ccc(O)cc1)C(O)=O,3.02,19:9:5,carboxylic_acid:amine_primary:amine_secondary,L-Tyrosyl-D-leucine
CC(C)C[C@H](NC(=O)[C@@H](N)CO)C(O)=O,7.45,13:9,carboxylic_acid:amine_primary,L-Seryl-L-leucine
CC(C)C[C@H](NC(=O)[C@@H](N)CO)C(O)=O,3.08,13:9,carboxylic_acid:amine_primary,L-Seryl-L-leucine
CC(C)(N)C(=O)NC(C)(C)C(O)=O,8.26,11:3,carboxylic_acid:amine_primary,2-Methylalanyl-2-methylalanine
CC(C)(N)C(=O)NC(C)(C)C(O)=O,3.67,11:3,carboxylic_acid:amine_primary,2-Methylalanyl-2-methylalanine
N[C@@H](Cc1ccccc1)C(=O)N[C@@H](Cc2ccccc2)C(O)=O,7.27,21:0,carboxylic_acid:amine_primary,L-Phenylalanyl-L-phenylalanine
N[C@@H](Cc1ccccc1)C(=O)N[C@@H](Cc2ccccc2)C(O)=O,3.26,21:0,carboxylic_acid:amine_primary,L-Phenylalanyl-L-phenylalanine
N[C@@H](Cc1ccccc1)C(=O)N[C@@H](Cc2ccc(O)cc2)C(O)=O,9.99,22:0:11,carboxylic_acid:amine_primary:amine_secondary,L-Phenylalanyl-L-tyrosine
N[C@@H](Cc1ccccc1)C(=O)N[C@@H](Cc2ccc(O)cc2)C(O)=O,7.23,22:0:11,carboxylic_acid:amine_primary:amine_secondary,L-Phenylalanyl-L-tyrosine
N[C@@H](Cc1ccccc1)C(=O)N[C@@H](Cc2ccc(O)cc2)C(O)=O,3.25,22:0:11,carboxylic_acid:amine_primary:amine_secondary,L-Phenylalanyl-L-tyrosine
N[C@@H](Cc1ccccc1)C(=O)N[C@@H](CS)C(O)=O,9.61,16:0:11,carboxylic_acid:amine_primary:amine_secondary,L-Phenylalanyl-L-cysteine
N[C@@H](Cc1ccccc1)C(=O)N[C@@H](CS)C(O)=O,7.25,16:0:11,carboxylic_acid:amine_primary:amine_secondary,L-Phenylalanyl-L-cysteine
N[C@@H](Cc1ccccc1)C(=O)N[C@@H](CS)C(O)=O,2.98,16:0:11,carboxylic_acid:amine_primary:amine_secondary,L-Phenylalanyl-L-cysteine
CSCC[C@H](NC(=O)[C@@H](N)Cc1ccccc1)C(O)=O,7.27,18:9,carboxylic_acid:amine_primary,L-Phenylalanyl-L-methionine
CSCC[C@H](NC(=O)[C@@H](N)Cc1ccccc1)C(O)=O,3.24,18:9,carboxylic_acid:amine_primary,L-Phenylalanyl-L-methionine
N[C@@H](Cc1ccc(O)cc1)C(=O)N[C@@H](Cc2ccccc2)C(O)=O,10.09,22:0:12,carboxylic_acid:amine_primary:amine_secondary,L-Tyrosyl-L-phenylalanine
N[C@@H](Cc1ccc(O)cc1)C(=O)N[C@@H](Cc2ccccc2)C(O)=O,7.36,22:0:12,carboxylic_acid:amine_primary:amine_secondary,L-Tyrosyl-L-phenylalanine
N[C@@H](Cc1ccc(O)cc1)C(=O)N[C@@H](Cc2ccccc2)C(O)=O,3.16,22:0:12,carboxylic_acid:amine_primary:amine_secondary,L-Tyrosyl-L-phenylalanine
N[C@@H](Cc1ccc(O)cc1)C(=O)N[C@H](Cc2ccccc2)C(O)=O,9.99,22:0:12,carboxylic_acid:amine_primary:amine_secondary,L-Tyrosyl-D-phenylalanine
N[C@@H](Cc1ccc(O)cc1)C(=O)N[C@H](Cc2ccccc2)C(O)=O,7.66,22:0:12,carboxylic_acid:amine_primary:amine_secondary,L-Tyrosyl-D-phenylalanine
N[C@@H](Cc1ccc(O)cc1)C(=O)N[C@H](Cc2ccccc2)C(O)=O,2.86,22:0:12,carboxylic_acid:amine_primary:amine_secondary,L-Tyrosyl-D-phenylalanine
N[C@@H](Cc1ccc(O)cc1)C(=O)N[C@@H](Cc2ccc(O)cc2)C(O)=O,10.47,23:0:12:7,carboxylic_acid:amine_primary:amine_secondary:phenol,L-Tyrosyl-L-tyrosine
N[C@@H](Cc1ccc(O)cc1)C(=O)N[C@@H](Cc2ccc(O)cc2)C(O)=O,9.68,23:0:12:7,carboxylic_acid:amine_primary:amine_secondary:phenol,L-Tyrosyl-L-tyrosine
N[C@@H](Cc1ccc(O)cc1)C(=O)N[C@@H](Cc2ccc(O)cc2)C(O)=O,7.33,23:0:12:7,carboxylic_acid:amine_primary:amine_secondary:phenol,L-Tyrosyl-L-tyrosine
N[C@@H](Cc1ccc(O)cc1)C(=O)N[C@@H](Cc2ccc(O)cc2)C(O)=O,3.21,23:0:12:7,carboxylic_acid:amine_primary:amine_secondary:phenol,L-Tyrosyl-L-tyrosine
N[C@@H](Cc1ccc(O)cc1)C(=O)N[C@H](Cc2ccc(O)cc2)C(O)=O,10.54,23:0:12:7,carboxylic_acid:amine_primary:amine_secondary:phenol,L-Tyrosyl-D-tyrosine
N[C@@H](Cc1ccc(O)cc1)C(=O)N[C@H](Cc2ccc(O)cc2)C(O)=O,9.73,23:0:12:7,carboxylic_acid:amine_primary:amine_secondary:phenol,L-Tyrosyl-D-tyrosine
N[C@@H](Cc1ccc(O)cc1)C(=O)N[C@H](Cc2ccc(O)cc2)C(O)=O,7.74,23:0:12:7,carboxylic_acid:amine_primary:amine_secondary:phenol,L-Tyrosyl-D-tyrosine
N[C@@H](Cc1ccc(O)cc1)C(=O)N[C@H](Cc2ccc(O)cc2)C(O)=O,2.93,23:0:12:7,carboxylic_acid:amine_primary:amine_secondary:phenol,L-Tyrosyl-D-tyrosine
N[C@@H](Cc1ccc(O)cc1)C(=O)N[C@@H](CCC(O)=O)C(O)=O,10.09,17:20:0:12,carboxylic_acid:carboxylic_acid:amine_primary:amine_secondary,L-Tyrosyl-L-glutamic acid
N[C@@H](Cc1ccc(O)cc1)C(=O)N[C@@H](CCC(O)=O)C(O)=O,7.69,17:20:0:12,carboxylic_acid:carboxylic_acid:amine_primary:amine_secondary,L-Tyrosyl-L-glutamic acid
N[C@@H](Cc1ccc(O)cc1)C(=O)N[C@@H](CCC(O)=O)C(O)=O,4.48,17:20:0:12,carboxylic_acid:carboxylic_acid:amine_primary:amine_secondary,L-Tyrosyl-L-glutamic acid
N[C@@H](Cc1ccc(O)cc1)C(=O)N[C@@H](CCC(O)=O)C(O)=O,3.17,17:20:0:12,carboxylic_acid:carboxylic_acid:amine_primary:amine_secondary,L-Tyrosyl-L-glutamic acid
N[C@@H](Cc1ccc(O)cc1)C(=O)N[C@H](CCC(O)=O)C(O)=O,10.17,17:20:0:12,carboxylic_acid:carboxylic_acid:amine_primary:amine_secondary,L-Tyrosyl-D-glutamic acid
N[C@@H](Cc1ccc(O)cc1)C(=O)N[C@H](CCC(O)=O)C(O)=O,7.85,17:20:0:12,carboxylic_acid:carboxylic_acid:amine_primary:amine_secondary,L-Tyrosyl-D-glutamic acid
N[C@@H](Cc1ccc(O)cc1)C(=O)N[C@H](CCC(O)=O)C(O)=O,4.65,17:20:0:12,carboxylic_acid:carboxylic_acid:amine_primary:amine_secondary,L-Tyrosyl-D-glutamic acid
N[C@@H](Cc1ccc(O)cc1)C(=O)N[C@H](CCC(O)=O)C(O)=O,2.85,17:20:0:12,carboxylic_acid:carboxylic_acid:amine_primary:amine_secondary,L-Tyrosyl-D-glutamic acid
N[C@@H](Cc1ccc(O)cc1)C(=O)N[C@@H](CCCNC(N)=N)C(O)=O,9.82,22:0:19,carboxylic_acid:amine_primary:amine_primary,L-Tyrosyl-L-arginine
N[C@@H](Cc1ccc(O)cc1)C(=O)N[C@@H](CCCNC(N)=N)C(O)=O,7.24,22:0:19,carboxylic_acid:amine_primary:amine_primary,L-Tyrosyl-L-arginine
N[C@@H](Cc1ccc(O)cc1)C(=O)N[C@@H](CCCNC(N)=N)C(O)=O,3.09,22:0:19,carboxylic_acid:amine_primary:amine_primary,L-Tyrosyl-L-arginine
N[C@@H](Cc1ccc(O)cc1)C(=O)N[C@H](CCCNC(N)=N)C(O)=O,9.82,22:0:19,carboxylic_acid:amine_primary:amine_primary,L-Tyrosyl-D-arginine
N[C@@H](Cc1ccc(O)cc1)C(=O)N[C@H](CCCNC(N)=N)C(O)=O,7.62,22:0:19,carboxylic_acid:amine_primary:amine_primary,L-Tyrosyl-D-arginine
N[C@@H](Cc1ccc(O)cc1)C(=O)N[C@H](CCCNC(N)=N)C(O)=O,2.81,22:0:19,carboxylic_acid:amine_primary:amine_primary,L-Tyrosyl-D-arginine
N[C@@H](Cc1ccc(O)cc1)C(=O)N2CCC[C@H]2C(O)=O,9.91,0:7:18,amine_primary:phenol:carboxylic_acid,L-Tyrosyl-L-proline
N[C@@H](Cc1ccc(O)cc1)C(=O)N2CCC[C@H]2C(O)=O,7.81,0:7:18,amine_primary:phenol:carboxylic_acid,L-Tyrosyl-L-proline
N[C@@H](Cc1ccc(O)cc1)C(=O)N2CCC[C@H]2C(O)=O,3.19,0:7:18,amine_primary:phenol:carboxylic_acid,L-Tyrosyl-L-proline
NCCCC[C@H](NC(=O)[C@@H](N)Cc1ccc(O)cc1)C(O)=O,11.01,20:0:10:6,carboxylic_acid:amine_primary:amine_primary:amine_secondary,L-Tyrosyl-L-lysine
NCCCC[C@H](NC(=O)[C@@H](N)Cc1ccc(O)cc1)C(O)=O,9.72,20:0:10:6,carboxylic_acid:amine_primary:amine_primary:amine_secondary,L-Tyrosyl-L-lysine
NCCCC[C@H](NC(=O)[C@@H](N)Cc1ccc(O)cc1)C(O)=O,7.33,20:0:10:6,carboxylic_acid:amine_primary:amine_primary:amine_secondary,L-Tyrosyl-L-lysine
NCCCC[C@H](NC(=O)[C@@H](N)Cc1ccc(O)cc1)C(O)=O,3.34,20:0:10:6,carboxylic_acid:amine_primary:amine_primary:amine_secondary,L-Tyrosyl-L-lysine
NCCCC[C@H](N)C(=O)N[C@@H](Cc1ccc(O)cc1)C(O)=O,11.06,20:0:6:9,carboxylic_acid:amine_primary:amine_primary:amine_secondary,L-Lysyl-L-tyrosine
NCCCC[C@H](N)C(=O)N[C@@H](Cc1ccc(O)cc1)C(O)=O,9.79,20:0:6:9,carboxylic_acid:amine_primary:amine_primary:amine_secondary,L-Lysyl-L-tyrosine
NCCCC[C@H](N)C(=O)N[C@@H](Cc1ccc(O)cc1)C(O)=O,7.47,20:0:6:9,carboxylic_acid:amine_primary:amine_primary:amine_secondary,L-Lysyl-L-tyrosine
NCCCC[C@H](N)C(=O)N[C@@H](Cc1ccc(O)cc1)C(O)=O,3.02,20:0:6:9,carboxylic_acid:amine_primary:amine_primary:amine_secondary,L-Lysyl-L-tyrosine
COC(=O)C(Cc1ccccc1)NC(=O)C(N)CC(O)=O,7.38,19:16,carboxylic_acid:amine_primary,L-1-Aspartyl-L-3-phenylalanine methylester (Aspartame)
COC(=O)C(Cc1ccccc1)NC(=O)C(N)CC(O)=O,2.98,19:16,carboxylic_acid:amine_primary,L-1-Aspartyl-L-3-phenylalanine methylester (Aspartame)
N[C@@H](CO)C(=O)N[C@@H](CCC(O)=O)C(O)=O,7.42,11:14:0,carboxylic_acid:carboxylic_acid:amine_primary,L-Seryl-L-glutamic acid
N[C@@H](CO)C(=O)N[C@@H](CCC(O)=O)C(O)=O,4.34,11:14:0,carboxylic_acid:carboxylic_acid:amine_primary,L-Seryl-L-glutamic acid
N[C@@H](CO)C(=O)N[C@@H](CCC(O)=O)C(O)=O,2.94,11:14:0,carboxylic_acid:carboxylic_acid:amine_primary,L-Seryl-L-glutamic acid
NCCCC[C@H](NC(=O)[C@@H](N)CO)C(O)=O,10.49,14:0:10,carboxylic_acid:amine_primary:amine_primary,L-Seryl-L-lysine
NCCCC[C@H](NC(=O)[C@@H](N)CO)C(O)=O,7.16,14:0:10,carboxylic_acid:amine_primary:amine_primary,L-Seryl-L-lysine
NCCCC[C@H](NC(=O)[C@@H](N)CO)C(O)=O,2.92,14:0:10,carboxylic_acid:amine_primary:amine_primary,L-Seryl-L-lysine
C[C@H](NC(=O)[C@@H](N)CCCCN)C(O)=O,10.59,13:6:11,carboxylic_acid:amine_primary:amine_primary,L-Lysyl-L-alanine
C[C@H](NC(=O)[C@@H](N)CCCCN)C(O)=O,7.51,13:6:11,carboxylic_acid:amine_primary:amine_primary,L-Lysyl-L-alanine
C[C@H](NC(=O)[C@@H](N)CCCCN)C(O)=O,3.11,13:6:11,carboxylic_acid:amine_primary:amine_primary,L-Lysyl-L-alanine
C[C@@H](NC(=O)[C@@H](N)CCCCN)C(O)=O,10.52,13:6:11,carboxylic_acid:amine_primary:amine_primary,L-Lysyl-D-alanine
C[C@@H](NC(=O)[C@@H](N)CCCCN)C(O)=O,7.63,13:6:11,carboxylic_acid:amine_primary:amine_primary,L-Lysyl-D-alanine
C[C@@H](NC(=O)[C@@H](N)CCCCN)C(O)=O,2.89,13:6:11,carboxylic_acid:amine_primary:amine_primary,L-Lysyl-D-alanine
NCCCC[C@H](N)C(=O)N[C@@H](CCCCN)C(O)=O,10.9,17:0:6:15,carboxylic_acid:amine_primary:amine_primary:amine_primary,L-Lysyl-L-lysine
NCCCC[C@H](N)C(=O)N[C@@H](CCCCN)C(O)=O,9.94,17:0:6:15,carboxylic_acid:amine_primary:amine_primary:amine_primary,L-Lysyl-L-lysine
NCCCC[C@H](N)C(=O)N[C@@H](CCCCN)C(O)=O,7.42,17:0:6:15,carboxylic_acid:amine_primary:amine_primary:amine_primary,L-Lysyl-L-lysine
NCCCC[C@H](N)C(=O)N[C@@H](CCCCN)C(O)=O,2.9,17:0:6:15,carboxylic_acid:amine_primary:amine_primary:amine_primary,L-Lysyl-L-lysine