SMILES,pKa,Dissociable_Atoms,Functional_Group,Name,Dissociable_Atoms_Ordered,Functional_Group_Ordered,Dissociation_Order
CC([P](O)(O)=O)[P](O)(O)=O,6.56,2:3:4:6,phosphate:phosphate:phosphate:phosphate,"Ethane-1,1-diphosphonic acid",2:3:4:6,phosphate:phosphate:phosphate:phosphate,2(phosphate) > 3(phosphate) > 4(phosphate) > 6(phosphate)
CC([P](O)(O)=O)[P](O)(O)=O,7.49,2:3:4:6,phosphate:phosphate:phosphate:phosphate,"Ethane-1,1-diphosphonic acid",2:3:4:6,phosphate:phosphate:phosphate:phosphate,2(phosphate) > 3(phosphate) > 4(phosphate) > 6(phosphate)
CC([P](O)(O)=O)[P](O)(O)=O,2.88,2:3:4:6,phosphate:phosphate:phosphate:phosphate,"Ethane-1,1-diphosphonic acid",2:3:4:6,phosphate:phosphate:phosphate:phosphate,2(phosphate) > 3(phosphate) > 4(phosphate) > 6(phosphate)
CC([P](O)(O)=O)[P](O)(O)=O,2.66,2:3:4:6,phosphate:phosphate:phosphate:phosphate,"Ethane-1,1-diphosphonic acid",2:3:4:6,phosphate:phosphate:phosphate:phosphate,2(phosphate) > 3(phosphate) > 4(phosphate) > 6(phosphate)
CC([P](O)(O)=O)[P](O)(O)=O,2.48,2:3:4:6,phosphate:phosphate:phosphate:phosphate,"Ethane-1,1-diphosphonic acid",2:3:4:6,phosphate:phosphate:phosphate:phosphate,2(phosphate) > 3(phosphate) > 4(phosphate) > 6(phosphate)
CC([P](O)(O)=O)[P](O)(O)=O,3.14,2:3:4:6,phosphate:phosphate:phosphate:phosphate,"Ethane-1,1-diphosphonic acid",2:3:4:6,phosphate:phosphate:phosphate:phosphate,2(phosphate) > 3(phosphate) > 4(phosphate) > 6(phosphate)
CC([P](O)(O)=O)[P](O)(O)=O,1.4,2:3:4:6,phosphate:phosphate:phosphate:phosphate,"Ethane-1,1-diphosphonic acid",2:3:4:6,phosphate:phosphate:phosphate:phosphate,2(phosphate) > 3(phosphate) > 4(phosphate) > 6(phosphate)
CC(C)([P](O)(O)=O)[P](O)(O)=O,11.8,3:4:5,phosphate:phosphate:phosphate,"Propane-2,2-diphosphonic acid",3:4:5,phosphate:phosphate:phosphate,3(phosphate) > 4(phosphate) > 5(phosphate)
CC(C)([P](O)(O)=O)[P](O)(O)=O,12.4,3:4:5,phosphate:phosphate:phosphate,"Propane-2,2-diphosphonic acid",3:4:5,phosphate:phosphate:phosphate,3(phosphate) > 4(phosphate) > 5(phosphate)
CC(C)([P](O)(O)=O)[P](O)(O)=O,12.1,3:4:5,phosphate:phosphate:phosphate,"Propane-2,2-diphosphonic acid",3:4:5,phosphate:phosphate:phosphate,3(phosphate) > 4(phosphate) > 5(phosphate)
CC(C)([P](O)(O)=O)[P](O)(O)=O,7.78,3:4:5,phosphate:phosphate:phosphate,"Propane-2,2-diphosphonic acid",3:4:5,phosphate:phosphate:phosphate,3(phosphate) > 4(phosphate) > 5(phosphate)
CC(C)([P](O)(O)=O)[P](O)(O)=O,7.75,3:4:5,phosphate:phosphate:phosphate,"Propane-2,2-diphosphonic acid",3:4:5,phosphate:phosphate:phosphate,3(phosphate) > 4(phosphate) > 5(phosphate)
CC(C)([P](O)(O)=O)[P](O)(O)=O,8.04,3:4:5,phosphate:phosphate:phosphate,"Propane-2,2-diphosphonic acid",3:4:5,phosphate:phosphate:phosphate,3(phosphate) > 4(phosphate) > 5(phosphate)
CC(C)([P](O)(O)=O)[P](O)(O)=O,2.98,3:4:5,phosphate:phosphate:phosphate,"Propane-2,2-diphosphonic acid",3:4:5,phosphate:phosphate:phosphate,3(phosphate) > 4(phosphate) > 5(phosphate)
CC(C)([P](O)(O)=O)[P](O)(O)=O,2.94,3:4:5,phosphate:phosphate:phosphate,"Propane-2,2-diphosphonic acid",3:4:5,phosphate:phosphate:phosphate,3(phosphate) > 4(phosphate) > 5(phosphate)
CC(C)([P](O)(O)=O)[P](O)(O)=O,3.16,3:4:5,phosphate:phosphate:phosphate,"Propane-2,2-diphosphonic acid",3:4:5,phosphate:phosphate:phosphate,3(phosphate) > 4(phosphate) > 5(phosphate)
O[P](O)(=O)CC[P](O)(O)=O,9.08,0:1:2:6,phosphate:phosphate:phosphate:phosphate,Ethylenediphosphonic acid,0:1:2:6,phosphate:phosphate:phosphate:phosphate,0(phosphate) > 1(phosphate) > 2(phosphate) > 6(phosphate)
O[P](O)(=O)CC[P](O)(O)=O,8.96,0:1:2:6,phosphate:phosphate:phosphate:phosphate,Ethylenediphosphonic acid,0:1:2:6,phosphate:phosphate:phosphate:phosphate,0(phosphate) > 1(phosphate) > 2(phosphate) > 6(phosphate)
O[P](O)(=O)CC[P](O)(O)=O,9.28,0:1:2:6,phosphate:phosphate:phosphate:phosphate,Ethylenediphosphonic acid,0:1:2:6,phosphate:phosphate:phosphate:phosphate,0(phosphate) > 1(phosphate) > 2(phosphate) > 6(phosphate)
O[P](O)(=O)CC[P](O)(O)=O,7.5,0:1:2:6,phosphate:phosphate:phosphate:phosphate,Ethylenediphosphonic acid,0:1:2:6,phosphate:phosphate:phosphate:phosphate,0(phosphate) > 1(phosphate) > 2(phosphate) > 6(phosphate)
O[P](O)(=O)CC[P](O)(O)=O,7.42,0:1:2:6,phosphate:phosphate:phosphate:phosphate,Ethylenediphosphonic acid,0:1:2:6,phosphate:phosphate:phosphate:phosphate,0(phosphate) > 1(phosphate) > 2(phosphate) > 6(phosphate)
O[P](O)(=O)CC[P](O)(O)=O,7.62,0:1:2:6,phosphate:phosphate:phosphate:phosphate,Ethylenediphosphonic acid,0:1:2:6,phosphate:phosphate:phosphate:phosphate,0(phosphate) > 1(phosphate) > 2(phosphate) > 6(phosphate)
O[P](O)(=O)CC[P](O)(O)=O,2.96,0:1:2:6,phosphate:phosphate:phosphate:phosphate,Ethylenediphosphonic acid,0:1:2:6,phosphate:phosphate:phosphate:phosphate,0(phosphate) > 1(phosphate) > 2(phosphate) > 6(phosphate)
O[P](O)(=O)CC[P](O)(O)=O,2.74,0:1:2:6,phosphate:phosphate:phosphate:phosphate,Ethylenediphosphonic acid,0:1:2:6,phosphate:phosphate:phosphate:phosphate,0(phosphate) > 1(phosphate) > 2(phosphate) > 6(phosphate)
O[P](O)(=O)CC[P](O)(O)=O,3.18,0:1:2:6,phosphate:phosphate:phosphate:phosphate,Ethylenediphosphonic acid,0:1:2:6,phosphate:phosphate:phosphate:phosphate,0(phosphate) > 1(phosphate) > 2(phosphate) > 6(phosphate)
O[P](O)(=O)CC[P](O)(O)=O,1.5,0:1:2:6,phosphate:phosphate:phosphate:phosphate,Ethylenediphosphonic acid,0:1:2:6,phosphate:phosphate:phosphate:phosphate,0(phosphate) > 1(phosphate) > 2(phosphate) > 6(phosphate)
CC(C[P](O)(O)=O)[P](O)(O)=O,9.27,3:4:5,phosphate:phosphate:phosphate,"Propane-1,2-diphosphonic acid",3:4:5,phosphate:phosphate:phosphate,3(phosphate) > 4(phosphate) > 5(phosphate)
CC(C[P](O)(O)=O)[P](O)(O)=O,7.0,3:4:5,phosphate:phosphate:phosphate,"Propane-1,2-diphosphonic acid",3:4:5,phosphate:phosphate:phosphate,3(phosphate) > 4(phosphate) > 5(phosphate)
CC(C[P](O)(O)=O)[P](O)(O)=O,2.6,3:4:5,phosphate:phosphate:phosphate,"Propane-1,2-diphosphonic acid",3:4:5,phosphate:phosphate:phosphate,3(phosphate) > 4(phosphate) > 5(phosphate)
O[P](O)(=O)CCC[P](O)(O)=O,8.43,0:1:2:7,phosphate:phosphate:phosphate:phosphate,Trimethylenediphosphonic acid,0:1:2:7,phosphate:phosphate:phosphate:phosphate,0(phosphate) > 1(phosphate) > 2(phosphate) > 7(phosphate)
O[P](O)(=O)CCC[P](O)(O)=O,8.35,0:1:2:7,phosphate:phosphate:phosphate:phosphate,Trimethylenediphosphonic acid,0:1:2:7,phosphate:phosphate:phosphate:phosphate,0(phosphate) > 1(phosphate) > 2(phosphate) > 7(phosphate)
O[P](O)(=O)CCC[P](O)(O)=O,8.33,0:1:2:7,phosphate:phosphate:phosphate:phosphate,Trimethylenediphosphonic acid,0:1:2:7,phosphate:phosphate:phosphate:phosphate,0(phosphate) > 1(phosphate) > 2(phosphate) > 7(phosphate)
O[P](O)(=O)CCC[P](O)(O)=O,8.63,0:1:2:7,phosphate:phosphate:phosphate:phosphate,Trimethylenediphosphonic acid,0:1:2:7,phosphate:phosphate:phosphate:phosphate,0(phosphate) > 1(phosphate) > 2(phosphate) > 7(phosphate)
O[P](O)(=O)CCC[P](O)(O)=O,7.5,0:1:2:7,phosphate:phosphate:phosphate:phosphate,Trimethylenediphosphonic acid,0:1:2:7,phosphate:phosphate:phosphate:phosphate,0(phosphate) > 1(phosphate) > 2(phosphate) > 7(phosphate)
O[P](O)(=O)CCC[P](O)(O)=O,7.34,0:1:2:7,phosphate:phosphate:phosphate:phosphate,Trimethylenediphosphonic acid,0:1:2:7,phosphate:phosphate:phosphate:phosphate,0(phosphate) > 1(phosphate) > 2(phosphate) > 7(phosphate)
O[P](O)(=O)CCC[P](O)(O)=O,7.41,0:1:2:7,phosphate:phosphate:phosphate:phosphate,Trimethylenediphosphonic acid,0:1:2:7,phosphate:phosphate:phosphate:phosphate,0(phosphate) > 1(phosphate) > 2(phosphate) > 7(phosphate)
O[P](O)(=O)CCC[P](O)(O)=O,7.65,0:1:2:7,phosphate:phosphate:phosphate:phosphate,Trimethylenediphosphonic acid,0:1:2:7,phosphate:phosphate:phosphate:phosphate,0(phosphate) > 1(phosphate) > 2(phosphate) > 7(phosphate)
O[P](O)(=O)CCC[P](O)(O)=O,2.81,0:1:2:7,phosphate:phosphate:phosphate:phosphate,Trimethylenediphosphonic acid,0:1:2:7,phosphate:phosphate:phosphate:phosphate,0(phosphate) > 1(phosphate) > 2(phosphate) > 7(phosphate)
O[P](O)(=O)CCC[P](O)(O)=O,2.6,0:1:2:7,phosphate:phosphate:phosphate:phosphate,Trimethylenediphosphonic acid,0:1:2:7,phosphate:phosphate:phosphate:phosphate,0(phosphate) > 1(phosphate) > 2(phosphate) > 7(phosphate)
O[P](O)(=O)CCC[P](O)(O)=O,2.69,0:1:2:7,phosphate:phosphate:phosphate:phosphate,Trimethylenediphosphonic acid,0:1:2:7,phosphate:phosphate:phosphate:phosphate,0(phosphate) > 1(phosphate) > 2(phosphate) > 7(phosphate)
O[P](O)(=O)CCC[P](O)(O)=O,3.06,0:1:2:7,phosphate:phosphate:phosphate:phosphate,Trimethylenediphosphonic acid,0:1:2:7,phosphate:phosphate:phosphate:phosphate,0(phosphate) > 1(phosphate) > 2(phosphate) > 7(phosphate)
O[P](O)(=O)CCC[P](O)(O)=O,1.6,0:1:2:7,phosphate:phosphate:phosphate:phosphate,Trimethylenediphosphonic acid,0:1:2:7,phosphate:phosphate:phosphate:phosphate,0(phosphate) > 1(phosphate) > 2(phosphate) > 7(phosphate)
O[P](O)(=O)CCC[P](O)(O)=O,1.7,0:1:2:7,phosphate:phosphate:phosphate:phosphate,Trimethylenediphosphonic acid,0:1:2:7,phosphate:phosphate:phosphate:phosphate,0(phosphate) > 1(phosphate) > 2(phosphate) > 7(phosphate)
O[P](O)(=O)CCCC[P](O)(O)=O,8.38,0:1:2:8,phosphate:phosphate:phosphate:phosphate,Tetramethylenediphosphonic acid,0:1:2:8,phosphate:phosphate:phosphate:phosphate,0(phosphate) > 1(phosphate) > 2(phosphate) > 8(phosphate)
O[P](O)(=O)CCCC[P](O)(O)=O,8.3,0:1:2:8,phosphate:phosphate:phosphate:phosphate,Tetramethylenediphosphonic acid,0:1:2:8,phosphate:phosphate:phosphate:phosphate,0(phosphate) > 1(phosphate) > 2(phosphate) > 8(phosphate)
O[P](O)(=O)CCCC[P](O)(O)=O,8.58,0:1:2:8,phosphate:phosphate:phosphate:phosphate,Tetramethylenediphosphonic acid,0:1:2:8,phosphate:phosphate:phosphate:phosphate,0(phosphate) > 1(phosphate) > 2(phosphate) > 8(phosphate)
O[P](O)(=O)CCCC[P](O)(O)=O,7.58,0:1:2:8,phosphate:phosphate:phosphate:phosphate,Tetramethylenediphosphonic acid,0:1:2:8,phosphate:phosphate:phosphate:phosphate,0(phosphate) > 1(phosphate) > 2(phosphate) > 8(phosphate)
O[P](O)(=O)CCCC[P](O)(O)=O,7.54,0:1:2:8,phosphate:phosphate:phosphate:phosphate,Tetramethylenediphosphonic acid,0:1:2:8,phosphate:phosphate:phosphate:phosphate,0(phosphate) > 1(phosphate) > 2(phosphate) > 8(phosphate)
O[P](O)(=O)CCCC[P](O)(O)=O,7.47,0:1:2:8,phosphate:phosphate:phosphate:phosphate,Tetramethylenediphosphonic acid,0:1:2:8,phosphate:phosphate:phosphate:phosphate,0(phosphate) > 1(phosphate) > 2(phosphate) > 8(phosphate)
O[P](O)(=O)CCCC[P](O)(O)=O,7.78,0:1:2:8,phosphate:phosphate:phosphate:phosphate,Tetramethylenediphosphonic acid,0:1:2:8,phosphate:phosphate:phosphate:phosphate,0(phosphate) > 1(phosphate) > 2(phosphate) > 8(phosphate)
O[P](O)(=O)CCCC[P](O)(O)=O,2.85,0:1:2:8,phosphate:phosphate:phosphate:phosphate,Tetramethylenediphosphonic acid,0:1:2:8,phosphate:phosphate:phosphate:phosphate,0(phosphate) > 1(phosphate) > 2(phosphate) > 8(phosphate)
O[P](O)(=O)CCCC[P](O)(O)=O,2.7,0:1:2:8,phosphate:phosphate:phosphate:phosphate,Tetramethylenediphosphonic acid,0:1:2:8,phosphate:phosphate:phosphate:phosphate,0(phosphate) > 1(phosphate) > 2(phosphate) > 8(phosphate)
O[P](O)(=O)CCCC[P](O)(O)=O,3.19,0:1:2:8,phosphate:phosphate:phosphate:phosphate,Tetramethylenediphosphonic acid,0:1:2:8,phosphate:phosphate:phosphate:phosphate,0(phosphate) > 1(phosphate) > 2(phosphate) > 8(phosphate)
O[P](O)(=O)CCCC[P](O)(O)=O,1.7,0:1:2:8,phosphate:phosphate:phosphate:phosphate,Tetramethylenediphosphonic acid,0:1:2:8,phosphate:phosphate:phosphate:phosphate,0(phosphate) > 1(phosphate) > 2(phosphate) > 8(phosphate)
O[P](O)(=O)CCCCCC[P](O)(O)=O,8.34,0:1:2:10,phosphate:phosphate:phosphate:phosphate,Hexamethylenediphosphonic acid,0:1:2:10,phosphate:phosphate:phosphate:phosphate,0(phosphate) > 1(phosphate) > 2(phosphate) > 10(phosphate)
O[P](O)(=O)CCCCCC[P](O)(O)=O,8.27,0:1:2:10,phosphate:phosphate:phosphate:phosphate,Hexamethylenediphosphonic acid,0:1:2:10,phosphate:phosphate:phosphate:phosphate,0(phosphate) > 1(phosphate) > 2(phosphate) > 10(phosphate)
O[P](O)(=O)CCCCCC[P](O)(O)=O,8.56,0:1:2:10,phosphate:phosphate:phosphate:phosphate,Hexamethylenediphosphonic acid,0:1:2:10,phosphate:phosphate:phosphate:phosphate,0(phosphate) > 1(phosphate) > 2(phosphate) > 10(phosphate)
O[P](O)(=O)CCCCCC[P](O)(O)=O,7.65,0:1:2:10,phosphate:phosphate:phosphate:phosphate,Hexamethylenediphosphonic acid,0:1:2:10,phosphate:phosphate:phosphate:phosphate,0(phosphate) > 1(phosphate) > 2(phosphate) > 10(phosphate)
O[P](O)(=O)CCCCCC[P](O)(O)=O,7.59,0:1:2:10,phosphate:phosphate:phosphate:phosphate,Hexamethylenediphosphonic acid,0:1:2:10,phosphate:phosphate:phosphate:phosphate,0(phosphate) > 1(phosphate) > 2(phosphate) > 10(phosphate)
O[P](O)(=O)CCCCCC[P](O)(O)=O,7.73,0:1:2:10,phosphate:phosphate:phosphate:phosphate,Hexamethylenediphosphonic acid,0:1:2:10,phosphate:phosphate:phosphate:phosphate,0(phosphate) > 1(phosphate) > 2(phosphate) > 10(phosphate)
O[P](O)(=O)CCCCCC[P](O)(O)=O,3.07,0:1:2:10,phosphate:phosphate:phosphate:phosphate,Hexamethylenediphosphonic acid,0:1:2:10,phosphate:phosphate:phosphate:phosphate,0(phosphate) > 1(phosphate) > 2(phosphate) > 10(phosphate)
O[P](O)(=O)CCCCCC[P](O)(O)=O,3.0,0:1:2:10,phosphate:phosphate:phosphate:phosphate,Hexamethylenediphosphonic acid,0:1:2:10,phosphate:phosphate:phosphate:phosphate,0(phosphate) > 1(phosphate) > 2(phosphate) > 10(phosphate)
O[P](O)(=O)CCCCCC[P](O)(O)=O,3.12,0:1:2:10,phosphate:phosphate:phosphate:phosphate,Hexamethylenediphosphonic acid,0:1:2:10,phosphate:phosphate:phosphate:phosphate,0(phosphate) > 1(phosphate) > 2(phosphate) > 10(phosphate)
O[P](O)(=O)CCCCCC[P](O)(O)=O,1.8,0:1:2:10,phosphate:phosphate:phosphate:phosphate,Hexamethylenediphosphonic acid,0:1:2:10,phosphate:phosphate:phosphate:phosphate,0(phosphate) > 1(phosphate) > 2(phosphate) > 10(phosphate)
O[P](O)(=O)CCCCCC[P](O)(O)=O,1.9,0:1:2:10,phosphate:phosphate:phosphate:phosphate,Hexamethylenediphosphonic acid,0:1:2:10,phosphate:phosphate:phosphate:phosphate,0(phosphate) > 1(phosphate) > 2(phosphate) > 10(phosphate)
O[P](O)(=O)CCCCCCCCCC[P](O)(O)=O,8.83,0:1:2:14,phosphate:phosphate:phosphate:phosphate,Decamethylenediphosphonic acid,0:1:2:14,phosphate:phosphate:phosphate:phosphate,0(phosphate) > 1(phosphate) > 2(phosphate) > 14(phosphate)
O[P](O)(=O)CCCCCCCCCC[P](O)(O)=O,8.73,0:1:2:14,phosphate:phosphate:phosphate:phosphate,Decamethylenediphosphonic acid,0:1:2:14,phosphate:phosphate:phosphate:phosphate,0(phosphate) > 1(phosphate) > 2(phosphate) > 14(phosphate)
O[P](O)(=O)CCCCCCCCCC[P](O)(O)=O,8.94,0:1:2:14,phosphate:phosphate:phosphate:phosphate,Decamethylenediphosphonic acid,0:1:2:14,phosphate:phosphate:phosphate:phosphate,0(phosphate) > 1(phosphate) > 2(phosphate) > 14(phosphate)
O[P](O)(=O)CCCCCCCCCC[P](O)(O)=O,7.74,0:1:2:14,phosphate:phosphate:phosphate:phosphate,Decamethylenediphosphonic acid,0:1:2:14,phosphate:phosphate:phosphate:phosphate,0(phosphate) > 1(phosphate) > 2(phosphate) > 14(phosphate)
O[P](O)(=O)CCCCCCCCCC[P](O)(O)=O,7.68,0:1:2:14,phosphate:phosphate:phosphate:phosphate,Decamethylenediphosphonic acid,0:1:2:14,phosphate:phosphate:phosphate:phosphate,0(phosphate) > 1(phosphate) > 2(phosphate) > 14(phosphate)
O[P](O)(=O)CCCCCCCCCC[P](O)(O)=O,7.93,0:1:2:14,phosphate:phosphate:phosphate:phosphate,Decamethylenediphosphonic acid,0:1:2:14,phosphate:phosphate:phosphate:phosphate,0(phosphate) > 1(phosphate) > 2(phosphate) > 14(phosphate)
O[P](O)(=O)CCCCCCCCCC[P](O)(O)=O,3.15,0:1:2:14,phosphate:phosphate:phosphate:phosphate,Decamethylenediphosphonic acid,0:1:2:14,phosphate:phosphate:phosphate:phosphate,0(phosphate) > 1(phosphate) > 2(phosphate) > 14(phosphate)
O[P](O)(=O)CCCCCCCCCC[P](O)(O)=O,3.06,0:1:2:14,phosphate:phosphate:phosphate:phosphate,Decamethylenediphosphonic acid,0:1:2:14,phosphate:phosphate:phosphate:phosphate,0(phosphate) > 1(phosphate) > 2(phosphate) > 14(phosphate)
O[P](O)(=O)CCCCCCCCCC[P](O)(O)=O,3.27,0:1:2:14,phosphate:phosphate:phosphate:phosphate,Decamethylenediphosphonic acid,0:1:2:14,phosphate:phosphate:phosphate:phosphate,0(phosphate) > 1(phosphate) > 2(phosphate) > 14(phosphate)
O[P](O)(=O)CCCCCCCCCC[P](O)(O)=O,2.1,0:1:2:14,phosphate:phosphate:phosphate:phosphate,Decamethylenediphosphonic acid,0:1:2:14,phosphate:phosphate:phosphate:phosphate,0(phosphate) > 1(phosphate) > 2(phosphate) > 14(phosphate)
O[P](O)(=O)CCCCCCCCCC[P](O)(O)=O,2.0,0:1:2:14,phosphate:phosphate:phosphate:phosphate,Decamethylenediphosphonic acid,0:1:2:14,phosphate:phosphate:phosphate:phosphate,0(phosphate) > 1(phosphate) > 2(phosphate) > 14(phosphate)
O[P](O)(=O)C(=C)[P](O)(O)=O,8.6,0:1:2:6,phosphate:phosphate:phosphate:phosphate,"Ethene-1,1-diphosphonic acid (Vinylidenediphosphonic acid)",0:1:2:6,phosphate:phosphate:phosphate:phosphate,0(phosphate) > 1(phosphate) > 2(phosphate) > 6(phosphate)
O[P](O)(=O)C(=C)[P](O)(O)=O,6.01,0:1:2:6,phosphate:phosphate:phosphate:phosphate,"Ethene-1,1-diphosphonic acid (Vinylidenediphosphonic acid)",0:1:2:6,phosphate:phosphate:phosphate:phosphate,0(phosphate) > 1(phosphate) > 2(phosphate) > 6(phosphate)
O[P](O)(=O)C(=C)[P](O)(O)=O,2.06,0:1:2:6,phosphate:phosphate:phosphate:phosphate,"Ethene-1,1-diphosphonic acid (Vinylidenediphosphonic acid)",0:1:2:6,phosphate:phosphate:phosphate:phosphate,0(phosphate) > 1(phosphate) > 2(phosphate) > 6(phosphate)
O[P](O)(=O)C(=C)[P](O)(O)=O,1.4,0:1:2:6,phosphate:phosphate:phosphate:phosphate,"Ethene-1,1-diphosphonic acid (Vinylidenediphosphonic acid)",0:1:2:6,phosphate:phosphate:phosphate:phosphate,0(phosphate) > 1(phosphate) > 2(phosphate) > 6(phosphate)
O[P](O)(=O)C(F)(F)[P](O)(O)=O,7.63,0:1:2:7,phosphate:phosphate:phosphate:phosphate,Difluoromethylenediphosphonic acid,0:1:2:7,phosphate:phosphate:phosphate:phosphate,0(phosphate) > 1(phosphate) > 2(phosphate) > 7(phosphate)
O[P](O)(=O)C(F)(F)[P](O)(O)=O,8.16,0:1:2:7,phosphate:phosphate:phosphate:phosphate,Difluoromethylenediphosphonic acid,0:1:2:7,phosphate:phosphate:phosphate:phosphate,0(phosphate) > 1(phosphate) > 2(phosphate) > 7(phosphate)
O[P](O)(=O)C(F)(F)[P](O)(O)=O,5.66,0:1:2:7,phosphate:phosphate:phosphate:phosphate,Difluoromethylenediphosphonic acid,0:1:2:7,phosphate:phosphate:phosphate:phosphate,0(phosphate) > 1(phosphate) > 2(phosphate) > 7(phosphate)
O[P](O)(=O)C(F)(F)[P](O)(O)=O,5.78,0:1:2:7,phosphate:phosphate:phosphate:phosphate,Difluoromethylenediphosphonic acid,0:1:2:7,phosphate:phosphate:phosphate:phosphate,0(phosphate) > 1(phosphate) > 2(phosphate) > 7(phosphate)
O[P](O)(=O)C(F)(F)[P](O)(O)=O,2.11,0:1:2:7,phosphate:phosphate:phosphate:phosphate,Difluoromethylenediphosphonic acid,0:1:2:7,phosphate:phosphate:phosphate:phosphate,0(phosphate) > 1(phosphate) > 2(phosphate) > 7(phosphate)
O[P](O)(=O)C(F)(F)[P](O)(O)=O,2.14,0:1:2:7,phosphate:phosphate:phosphate:phosphate,Difluoromethylenediphosphonic acid,0:1:2:7,phosphate:phosphate:phosphate:phosphate,0(phosphate) > 1(phosphate) > 2(phosphate) > 7(phosphate)
O[P](O)(=O)C(F)(F)[P](O)(O)=O,1.4,0:1:2:7,phosphate:phosphate:phosphate:phosphate,Difluoromethylenediphosphonic acid,0:1:2:7,phosphate:phosphate:phosphate:phosphate,0(phosphate) > 1(phosphate) > 2(phosphate) > 7(phosphate)
O[P](O)(=O)C(F)(F)[P](O)(O)=O,1.5,0:1:2:7,phosphate:phosphate:phosphate:phosphate,Difluoromethylenediphosphonic acid,0:1:2:7,phosphate:phosphate:phosphate:phosphate,0(phosphate) > 1(phosphate) > 2(phosphate) > 7(phosphate)
FO[P](=O)(CC[P](=O)(OF)OF)OF,6.3,2:3:1:12:6:7:8:10,phosphate:phosphate:phosphate:phosphate:phosphate:phosphate:phosphate:phosphate,Tetrafluoroethylenediphosphonic acid,2:3:1:12:6:7:8:10,phosphate:phosphate:phosphate:phosphate:phosphate:phosphate:phosphate:phosphate,2(phosphate) > 3(phosphate) > 1(phosphate) > 12(phosphate) > 6(phosphate) > 7(phosphate) > 8(phosphate) > 10(phosphate)
FO[P](=O)(CC[P](=O)(OF)OF)OF,4.49,2:3:1:12:6:7:8:10,phosphate:phosphate:phosphate:phosphate:phosphate:phosphate:phosphate:phosphate,Tetrafluoroethylenediphosphonic acid,2:3:1:12:6:7:8:10,phosphate:phosphate:phosphate:phosphate:phosphate:phosphate:phosphate:phosphate,2(phosphate) > 3(phosphate) > 1(phosphate) > 12(phosphate) > 6(phosphate) > 7(phosphate) > 8(phosphate) > 10(phosphate)