SMILES,pKa,Dissociable_Atoms,Functional_Group,Name
C[C@H](NC(=O)[C@H](C)NC(=O)[C@H](C)NC(=O)[C@@H](N)CC(O)=O)C(O)=O,3.6,19:22:16,carboxylic_acid:carboxylic_acid:amine_primary,L-Aspartyl-L-alanyl-L-alanyl-L-alanine
C[C@H](NC(=O)[C@H](C)NC(=O)[C@H](C)NC(=O)[C@@H](N)CC(O)=O)C(O)=O,3.07,19:22:16,carboxylic_acid:carboxylic_acid:amine_primary,L-Aspartyl-L-alanyl-L-alanyl-L-alanine
C[C@H](N)C(=O)N[C@@H](C)C(=O)N[C@@H](CCC(O)=O)C(=O)N[C@@H](C)C(O)=O,8.1,15:23:2,carboxylic_acid:carboxylic_acid:amine_primary,L-Alanyl-L-alanyl-L-glutamyl-L-alanine
C[C@H](N)C(=O)N[C@@H](C)C(=O)N[C@@H](CCC(O)=O)C(=O)N[C@@H](C)C(O)=O,4.23,15:23:2,carboxylic_acid:carboxylic_acid:amine_primary,L-Alanyl-L-alanyl-L-glutamyl-L-alanine
C[C@H](N)C(=O)N[C@@H](C)C(=O)N[C@@H](CCC(O)=O)C(=O)N[C@@H](C)C(O)=O,3.25,15:23:2,carboxylic_acid:carboxylic_acid:amine_primary,L-Alanyl-L-alanyl-L-glutamyl-L-alanine
C[C@H](N)C(=O)N[C@@H](CCC(O)=O)C(=O)N[C@@H](C)C(=O)N[C@@H](C)C(O)=O,7.9,10:23:2,carboxylic_acid:carboxylic_acid:amine_primary,L-Alanyl-L-glutamyl-L-alanyl-L-alanine
C[C@H](N)C(=O)N[C@@H](CCC(O)=O)C(=O)N[C@@H](C)C(=O)N[C@@H](C)C(O)=O,4.07,10:23:2,carboxylic_acid:carboxylic_acid:amine_primary,L-Alanyl-L-glutamyl-L-alanyl-L-alanine
C[C@H](N)C(=O)N[C@@H](CCC(O)=O)C(=O)N[C@@H](C)C(=O)N[C@@H](C)C(O)=O,3.18,10:23:2,carboxylic_acid:carboxylic_acid:amine_primary,L-Alanyl-L-glutamyl-L-alanyl-L-alanine
C[C@H](NC(=O)[C@H](C)NC(=O)[C@H](C)NC(=O)[C@@H](N)CCC(O)=O)C(O)=O,7.77,20:23:16,carboxylic_acid:carboxylic_acid:amine_primary,L-Glutamyl-L-alanyl-L-alanyl-L-alanine
C[C@H](NC(=O)[C@H](C)NC(=O)[C@H](C)NC(=O)[C@@H](N)CCC(O)=O)C(O)=O,4.08,20:23:16,carboxylic_acid:carboxylic_acid:amine_primary,L-Glutamyl-L-alanyl-L-alanyl-L-alanine
C[C@H](NC(=O)[C@H](C)NC(=O)[C@H](C)NC(=O)[C@@H](N)CCC(O)=O)C(O)=O,3.13,20:23:16,carboxylic_acid:carboxylic_acid:amine_primary,L-Glutamyl-L-alanyl-L-alanyl-L-alanine
C[C@H](N)C(=O)N[C@@H](CC(O)=O)C(=O)N[C@@H](CC(O)=O)C(=O)N[C@@H](C)C(O)=O,8.3,9:17:25:2,carboxylic_acid:carboxylic_acid:carboxylic_acid:amine_primary,L-Alanyl-L-aspartyl-L-aspartyl-L-alanine
C[C@H](N)C(=O)N[C@@H](CC(O)=O)C(=O)N[C@@H](CC(O)=O)C(=O)N[C@@H](C)C(O)=O,4.35,9:17:25:2,carboxylic_acid:carboxylic_acid:carboxylic_acid:amine_primary,L-Alanyl-L-aspartyl-L-aspartyl-L-alanine
C[C@H](N)C(=O)N[C@@H](CC(O)=O)C(=O)N[C@@H](CC(O)=O)C(=O)N[C@@H](C)C(O)=O,3.5,9:17:25:2,carboxylic_acid:carboxylic_acid:carboxylic_acid:amine_primary,L-Alanyl-L-aspartyl-L-aspartyl-L-alanine
C[C@H](N)C(=O)N[C@@H](CC(O)=O)C(=O)N[C@@H](CC(O)=O)C(=O)N[C@@H](C)C(O)=O,2.93,9:17:25:2,carboxylic_acid:carboxylic_acid:carboxylic_acid:amine_primary,L-Alanyl-L-aspartyl-L-aspartyl-L-alanine
C[C@H](NC(=O)[C@H](C)NC(=O)[C@@H](N)CC(O)=O)C(=O)N[C@@H](CC(O)=O)C(O)=O,8.0,14:22:25:11,carboxylic_acid:carboxylic_acid:carboxylic_acid:amine_primary,L-Aspartyl-L-alanyl-L-alanyl-L-aspartic acid
C[C@H](NC(=O)[C@H](C)NC(=O)[C@@H](N)CC(O)=O)C(=O)N[C@@H](CC(O)=O)C(O)=O,4.64,14:22:25:11,carboxylic_acid:carboxylic_acid:carboxylic_acid:amine_primary,L-Aspartyl-L-alanyl-L-alanyl-L-aspartic acid
C[C@H](NC(=O)[C@H](C)NC(=O)[C@@H](N)CC(O)=O)C(=O)N[C@@H](CC(O)=O)C(O)=O,3.26,14:22:25:11,carboxylic_acid:carboxylic_acid:carboxylic_acid:amine_primary,L-Aspartyl-L-alanyl-L-alanyl-L-aspartic acid
C[C@H](NC(=O)[C@H](C)NC(=O)[C@@H](N)CC(O)=O)C(=O)N[C@@H](CC(O)=O)C(O)=O,3.12,14:22:25:11,carboxylic_acid:carboxylic_acid:carboxylic_acid:amine_primary,L-Aspartyl-L-alanyl-L-alanyl-L-aspartic acid
C[C@H](N)C(=O)N[C@@H](CC(O)=O)C(=O)N[C@@H](C)C(=O)N[C@@H](CC(O)=O)C(O)=O,8.28,9:22:25:2,carboxylic_acid:carboxylic_acid:carboxylic_acid:amine_primary,L-Alanyl-L-aspartyl-L-alanyl-L-aspartic acid
C[C@H](N)C(=O)N[C@@H](CC(O)=O)C(=O)N[C@@H](C)C(=O)N[C@@H](CC(O)=O)C(O)=O,4.63,9:22:25:2,carboxylic_acid:carboxylic_acid:carboxylic_acid:amine_primary,L-Alanyl-L-aspartyl-L-alanyl-L-aspartic acid
C[C@H](N)C(=O)N[C@@H](CC(O)=O)C(=O)N[C@@H](C)C(=O)N[C@@H](CC(O)=O)C(O)=O,3.47,9:22:25:2,carboxylic_acid:carboxylic_acid:carboxylic_acid:amine_primary,L-Alanyl-L-aspartyl-L-alanyl-L-aspartic acid
C[C@H](N)C(=O)N[C@@H](CC(O)=O)C(=O)N[C@@H](C)C(=O)N[C@@H](CC(O)=O)C(O)=O,3.14,9:22:25:2,carboxylic_acid:carboxylic_acid:carboxylic_acid:amine_primary,L-Alanyl-L-aspartyl-L-alanyl-L-aspartic acid
C[C@H](N)C(=O)N[C@@H](C)C(=O)N[C@@H](CC(O)=O)C(=O)N[C@@H](CC(O)=O)C(O)=O,8.31,14:22:25:2,carboxylic_acid:carboxylic_acid:carboxylic_acid:amine_primary,L-Alanyl-L-alanyl-L-aspartyl-L-aspartic acid
C[C@H](N)C(=O)N[C@@H](C)C(=O)N[C@@H](CC(O)=O)C(=O)N[C@@H](CC(O)=O)C(O)=O,4.67,14:22:25:2,carboxylic_acid:carboxylic_acid:carboxylic_acid:amine_primary,L-Alanyl-L-alanyl-L-aspartyl-L-aspartic acid
C[C@H](N)C(=O)N[C@@H](C)C(=O)N[C@@H](CC(O)=O)C(=O)N[C@@H](CC(O)=O)C(O)=O,3.51,14:22:25:2,carboxylic_acid:carboxylic_acid:carboxylic_acid:amine_primary,L-Alanyl-L-alanyl-L-aspartyl-L-aspartic acid
C[C@H](N)C(=O)N[C@@H](C)C(=O)N[C@@H](CC(O)=O)C(=O)N[C@@H](CC(O)=O)C(O)=O,3.43,14:22:25:2,carboxylic_acid:carboxylic_acid:carboxylic_acid:amine_primary,L-Alanyl-L-alanyl-L-aspartyl-L-aspartic acid
NCC(=O)N1CCC[C@H]1C(=O)NCC(=O)N[C@@H](Cc2ccc(O)cc2)C(O)=O,9.98,26:0,carboxylic_acid:amine_primary,Glycyl-L-prolylglycyl-L-tyrosine
NCC(=O)N1CCC[C@H]1C(=O)NCC(=O)N[C@@H](Cc2ccc(O)cc2)C(O)=O,8.43,26:0,carboxylic_acid:amine_primary,Glycyl-L-prolylglycyl-L-tyrosine
NCC(=O)N1CCC[C@H]1C(=O)N[C@@H](Cc2ccc(O)cc2)C(=O)NCC(O)=O,10.27,26:0:11,carboxylic_acid:amine_primary:amine_secondary,Glycyl-L-prolyl-L-tyrosylglycine
NCC(=O)N1CCC[C@H]1C(=O)N[C@@H](Cc2ccc(O)cc2)C(=O)NCC(O)=O,8.51,26:0:11,carboxylic_acid:amine_primary:amine_secondary,Glycyl-L-prolyl-L-tyrosylglycine
NCC(=O)N1CCC[C@H]1C(=O)N[C@@H](Cc2ccc(O)cc2)C(=O)NCC(O)=O,3.43,26:0:11,carboxylic_acid:amine_primary:amine_secondary,Glycyl-L-prolyl-L-tyrosylglycine
N[C@@H](Cc1ccc(O)cc1)C(=O)N2CCC[C@H]2C(=O)NCC(=O)NCC(O)=O,9.76,26:0:19,carboxylic_acid:amine_primary:amine_secondary,L-Tyrosyl-L-prolylglycylglycine
N[C@@H](Cc1ccc(O)cc1)C(=O)N2CCC[C@H]2C(=O)NCC(=O)NCC(O)=O,7.59,26:0:19,carboxylic_acid:amine_primary:amine_secondary,L-Tyrosyl-L-prolylglycylglycine
N[C@@H](Cc1ccc(O)cc1)C(=O)N2CCC[C@H]2C(=O)NCC(=O)NCC(O)=O,3.29,26:0:19,carboxylic_acid:amine_primary:amine_secondary,L-Tyrosyl-L-prolylglycylglycine
N[C@@H](Cc1ccc(O)cc1)C(=O)N2CCC[C@H]2C(=O)NCC(=O)N[C@@H](Cc3ccc(O)cc3)C(O)=O,10.12,34:0:19:23,carboxylic_acid:amine_primary:amine_secondary:amine_secondary,L-Tyrosyl-L-prolylglycyl-L-tyrosine
N[C@@H](Cc1ccc(O)cc1)C(=O)N2CCC[C@H]2C(=O)NCC(=O)N[C@@H](Cc3ccc(O)cc3)C(O)=O,9.75,34:0:19:23,carboxylic_acid:amine_primary:amine_secondary:amine_secondary,L-Tyrosyl-L-prolylglycyl-L-tyrosine
N[C@@H](Cc1ccc(O)cc1)C(=O)N2CCC[C@H]2C(=O)NCC(=O)N[C@@H](Cc3ccc(O)cc3)C(O)=O,7.61,34:0:19:23,carboxylic_acid:amine_primary:amine_secondary:amine_secondary,L-Tyrosyl-L-prolylglycyl-L-tyrosine
N[C@@H](Cc1ccc(O)cc1)C(=O)N2CCC[C@H]2C(=O)NCC(=O)N[C@@H](Cc3ccc(O)cc3)C(O)=O,2.74,34:0:19:23,carboxylic_acid:amine_primary:amine_secondary:amine_secondary,L-Tyrosyl-L-prolylglycyl-L-tyrosine
C[C@H](N)C(=O)N[C@@H](CC(O)=O)C(=O)N[C@@H](CO)C(=O)NCC(O)=O,8.33,9:22:2,carboxylic_acid:carboxylic_acid:amine_primary,L-Alanyl-L-aspartyl-L-serylglycine
C[C@H](N)C(=O)N[C@@H](CC(O)=O)C(=O)N[C@@H](CO)C(=O)NCC(O)=O,4.02,9:22:2,carboxylic_acid:carboxylic_acid:amine_primary,L-Alanyl-L-aspartyl-L-serylglycine
C[C@H](N)C(=O)N[C@@H](CC(O)=O)C(=O)N[C@@H](CO)C(=O)NCC(O)=O,3.21,9:22:2,carboxylic_acid:carboxylic_acid:amine_primary,L-Alanyl-L-aspartyl-L-serylglycine
NCCCC[C@H](NC(=O)[C@@H]1CCCN1C(=O)CNC(=O)CN)C(O)=O,9.88,23:0:21,carboxylic_acid:amine_primary:amine_primary,Glycylglycyl-L-prolyl-L-lysine
NCCCC[C@H](NC(=O)[C@@H]1CCCN1C(=O)CNC(=O)CN)C(O)=O,8.03,23:0:21,carboxylic_acid:amine_primary:amine_primary,Glycylglycyl-L-prolyl-L-lysine
NCCCC[C@H](NC(=O)[C@@H]1CCCN1C(=O)CNC(=O)CN)C(O)=O,3.19,23:0:21,carboxylic_acid:amine_primary:amine_primary,Glycylglycyl-L-prolyl-L-lysine
C[C@H](N)C(=O)N[C@@H](CCCCN)C(=O)N[C@@H](C)C(=O)N[C@@H](C)C(O)=O,10.47,23:2:11,carboxylic_acid:amine_primary:amine_primary,L-Alanyl-L-lysyl-L-alanyl-L-alanine
C[C@H](N)C(=O)N[C@@H](CCCCN)C(=O)N[C@@H](C)C(=O)N[C@@H](C)C(O)=O,7.9,23:2:11,carboxylic_acid:amine_primary:amine_primary,L-Alanyl-L-lysyl-L-alanyl-L-alanine
C[C@H](N)C(=O)N[C@@H](CCCCN)C(=O)N[C@@H](C)C(=O)N[C@@H](C)C(O)=O,3.47,23:2:11,carboxylic_acid:amine_primary:amine_primary,L-Alanyl-L-lysyl-L-alanyl-L-alanine
C[C@H](N)C(=O)N[C@H](CCCCN)C(=O)N[C@@H](C)C(=O)N[C@@H](C)C(O)=O,10.26,23:2:11,carboxylic_acid:amine_primary:amine_primary,L-Alanyl-D-lysyl-L-alanyl-L-alanine
C[C@H](N)C(=O)N[C@H](CCCCN)C(=O)N[C@@H](C)C(=O)N[C@@H](C)C(O)=O,7.9,23:2:11,carboxylic_acid:amine_primary:amine_primary,L-Alanyl-D-lysyl-L-alanyl-L-alanine
C[C@H](N)C(=O)N[C@H](CCCCN)C(=O)N[C@@H](C)C(=O)N[C@@H](C)C(O)=O,3.21,23:2:11,carboxylic_acid:amine_primary:amine_primary,L-Alanyl-D-lysyl-L-alanyl-L-alanine
CC(C)[C@H](NC(=O)[C@H](CC(O)=O)NC(=O)[C@H](CCCCN)NC(=O)[C@@H](N)CCCNC(N)=N)C(O)=O,10.48,10:34:20:25,carboxylic_acid:carboxylic_acid:amine_primary:amine_primary,L-Arginyl-L-lysyl-L-aspartyl-L-valine
CC(C)[C@H](NC(=O)[C@H](CC(O)=O)NC(=O)[C@H](CCCCN)NC(=O)[C@@H](N)CCCNC(N)=N)C(O)=O,7.34,10:34:20:25,carboxylic_acid:carboxylic_acid:amine_primary:amine_primary,L-Arginyl-L-lysyl-L-aspartyl-L-valine
CC(C)[C@H](NC(=O)[C@H](CC(O)=O)NC(=O)[C@H](CCCCN)NC(=O)[C@@H](N)CCCNC(N)=N)C(O)=O,3.89,10:34:20:25,carboxylic_acid:carboxylic_acid:amine_primary:amine_primary,L-Arginyl-L-lysyl-L-aspartyl-L-valine
CC(C)[C@H](NC(=O)[C@H](CC(O)=O)NC(=O)[C@H](CCCCN)NC(=O)[C@@H](N)CCCNC(N)=N)C(O)=O,3.04,10:34:20:25,carboxylic_acid:carboxylic_acid:amine_primary:amine_primary,L-Arginyl-L-lysyl-L-aspartyl-L-valine
NCC(=O)NCC(=O)NCC(=O)N[C@@H](Cc1c[nH]cn1)C(O)=O,7.99,21:0:4,carboxylic_acid:amine_primary:amine_secondary,Glycylglycylglycyl-L-histidine
NCC(=O)NCC(=O)NCC(=O)N[C@@H](Cc1c[nH]cn1)C(O)=O,6.73,21:0:4,carboxylic_acid:amine_primary:amine_secondary,Glycylglycylglycyl-L-histidine
NCC(=O)NCC(=O)NCC(=O)N[C@@H](Cc1c[nH]cn1)C(O)=O,2.9,21:0:4,carboxylic_acid:amine_primary:amine_secondary,Glycylglycylglycyl-L-histidine
C[C@H](N)C(=O)NCC(=O)NCC(=O)N[C@@H](Cc1c[nH]cn1)C(O)=O,8.14,22:2:5,carboxylic_acid:amine_primary:amine_secondary,L-Alanylglycylglycyl-L-histidine
C[C@H](N)C(=O)NCC(=O)NCC(=O)N[C@@H](Cc1c[nH]cn1)C(O)=O,6.89,22:2:5,carboxylic_acid:amine_primary:amine_secondary,L-Alanylglycylglycyl-L-histidine
C[C@H](N)C(=O)NCC(=O)NCC(=O)N[C@@H](Cc1c[nH]cn1)C(O)=O,2.62,22:2:5,carboxylic_acid:amine_primary:amine_secondary,L-Alanylglycylglycyl-L-histidine
C[C@H](NC(=O)[C@H](Cc1c[nH]cn1)NC(=O)CNC(=O)CN)C(O)=O,7.87,22:20:2,carboxylic_acid:amine_primary:amine_secondary,Glycylglycyl-L-histidyl-L-alanine
C[C@H](NC(=O)[C@H](Cc1c[nH]cn1)NC(=O)CNC(=O)CN)C(O)=O,6.63,22:20:2,carboxylic_acid:amine_primary:amine_secondary,Glycylglycyl-L-histidyl-L-alanine
C[C@H](NC(=O)[C@H](Cc1c[nH]cn1)NC(=O)CNC(=O)CN)C(O)=O,3.04,22:20:2,carboxylic_acid:amine_primary:amine_secondary,Glycylglycyl-L-histidyl-L-alanine
NCC(=O)N[C@@H](Cc1c[nH]cn1)C(=O)NCC(=O)N[C@@H](Cc2c[nH]cn2)C(O)=O,8.0,27:0:4:9,carboxylic_acid:amine_primary:amine_secondary:amine_secondary,Glycyl-L-histidylglycyl-L-histidine
NCC(=O)N[C@@H](Cc1c[nH]cn1)C(=O)NCC(=O)N[C@@H](Cc2c[nH]cn2)C(O)=O,6.95,27:0:4:9,carboxylic_acid:amine_primary:amine_secondary:amine_secondary,Glycyl-L-histidylglycyl-L-histidine
NCC(=O)N[C@@H](Cc1c[nH]cn1)C(=O)NCC(=O)N[C@@H](Cc2c[nH]cn2)C(O)=O,6.0,27:0:4:9,carboxylic_acid:amine_primary:amine_secondary:amine_secondary,Glycyl-L-histidylglycyl-L-histidine
NCC(=O)N[C@@H](Cc1c[nH]cn1)C(=O)NCC(=O)N[C@@H](Cc2c[nH]cn2)C(O)=O,2.57,27:0:4:9,carboxylic_acid:amine_primary:amine_secondary:amine_secondary,Glycyl-L-histidylglycyl-L-histidine
C[C@H](NC(=O)OC(C)(C)C)C(=O)NCC(=O)NCC(=O)N[C@@H](Cc1c[nH]cn1)C(O)=O,7.19,29:2,carboxylic_acid:amine_secondary,N-(2-Methyl-2-propyloxycarbonyl)-L-alanylglycylglycyl-L-histidine
C[C@H](NC(=O)OC(C)(C)C)C(=O)NCC(=O)NCC(=O)N[C@@H](Cc1c[nH]cn1)C(O)=O,2.83,29:2,carboxylic_acid:amine_secondary,N-(2-Methyl-2-propyloxycarbonyl)-L-alanylglycylglycyl-L-histidine
COC(=O)[C@H](Cc1c[nH]cn1)NC(=O)CNC(=O)CNC(=O)[C@H](C)N,8.05,24:8,amine_primary:amine_secondary,L-Alanylglycylglycyl-L-histidine methylester
COC(=O)[C@H](Cc1c[nH]cn1)NC(=O)CNC(=O)CNC(=O)[C@H](C)N,6.62,24:8,amine_primary:amine_secondary,L-Alanylglycylglycyl-L-histidine methylester
C[C@H](N)C(=O)NCC(=O)N1CCC[C@H]1C(=O)N[C@@H](Cc2c[nH]cn2)C(O)=O,8.16,25:2:5,carboxylic_acid:amine_primary:amine_secondary,L-Alanylglycyl-L-prolyl-L-histidine
C[C@H](N)C(=O)NCC(=O)N1CCC[C@H]1C(=O)N[C@@H](Cc2c[nH]cn2)C(O)=O,6.8,25:2:5,carboxylic_acid:amine_primary:amine_secondary,L-Alanylglycyl-L-prolyl-L-histidine
C[C@H](N)C(=O)NCC(=O)N1CCC[C@H]1C(=O)N[C@@H](Cc2c[nH]cn2)C(O)=O,2.63,25:2:5,carboxylic_acid:amine_primary:amine_secondary,L-Alanylglycyl-L-prolyl-L-histidine
NCC(=O)NCC(=O)NCC(=O)NCC(=O)NCC(O)=O,7.85,19:0,carboxylic_acid:amine_primary,Glycylglycylglycylglycylglycine (Pentaglycine)
NCC(=O)NCC(=O)NCC(=O)NCC(=O)NCC(O)=O,7.86,19:0,carboxylic_acid:amine_primary,Glycylglycylglycylglycylglycine (Pentaglycine)
NCC(=O)NCC(=O)NCC(=O)NCC(=O)NCC(O)=O,3.27,19:0,carboxylic_acid:amine_primary,Glycylglycylglycylglycylglycine (Pentaglycine)
NCC(=O)NCC(=O)NCC(=O)NCC(=O)NCC(O)=O,3.05,19:0,carboxylic_acid:amine_primary,Glycylglycylglycylglycylglycine (Pentaglycine)
C[C@H](NC(=O)CNC(=O)CNC(=O)CNC(=O)CN)C(O)=O,7.86,20:18,carboxylic_acid:amine_primary,Glycylglycylglycylglycyl-L-alanine
C[C@H](NC(=O)CNC(=O)CNC(=O)CNC(=O)CN)C(O)=O,3.37,20:18,carboxylic_acid:amine_primary,Glycylglycylglycylglycyl-L-alanine
C[C@H](N)C(=O)NCC(=O)NCC(=O)NCC(=O)NCC(O)=O,7.86,20:2,carboxylic_acid:amine_primary,L-Alanylglycylglycylglycylglycine
C[C@H](N)C(=O)NCC(=O)NCC(=O)NCC(=O)NCC(O)=O,3.38,20:2,carboxylic_acid:amine_primary,L-Alanylglycylglycylglycylglycine
NCC(=O)N1CCC[C@H]1C(=O)NCC(=O)N2CCC[C@H]2C(=O)NCC(O)=O,8.36,25:0,carboxylic_acid:amine_primary,Glycyl-L-prolylglycyl-L-prolylglycine
NCC(=O)N1CCC[C@H]1C(=O)NCC(=O)N2CCC[C@H]2C(=O)NCC(O)=O,3.31,25:0,carboxylic_acid:amine_primary,Glycyl-L-prolylglycyl-L-prolylglycine
NCC(=O)N1CCC[C@H]1C(=O)NCC(=O)N2CCC[C@H]2C(=O)N[C@@H](CCC(O)=O)C(O)=O,8.53,27:30:0,carboxylic_acid:carboxylic_acid:amine_primary,Glycyl-L-prolylglycyl-L-prolylglutamic acid
NCC(=O)N1CCC[C@H]1C(=O)NCC(=O)N2CCC[C@H]2C(=O)N[C@@H](CCC(O)=O)C(O)=O,4.4,27:30:0,carboxylic_acid:carboxylic_acid:amine_primary,Glycyl-L-prolylglycyl-L-prolylglutamic acid
NCC(=O)N1CCC[C@H]1C(=O)NCC(=O)N2CCC[C@H]2C(=O)N[C@@H](CCC(O)=O)C(O)=O,2.46,27:30:0,carboxylic_acid:carboxylic_acid:amine_primary,Glycyl-L-prolylglycyl-L-prolylglutamic acid
NCC(=O)N1CCC[C@H]1C(=O)NCC(=O)N2CCC[C@H]2C(=O)N[C@@H](CCC(N)=O)C(O)=O,8.29,30:0,carboxylic_acid:amine_primary,Glycyl-L-prolylglycyl-L-prolyl-L-glutamine
NCC(=O)N1CCC[C@H]1C(=O)NCC(=O)N2CCC[C@H]2C(=O)N[C@@H](CCC(N)=O)C(O)=O,3.22,30:0,carboxylic_acid:amine_primary,Glycyl-L-prolylglycyl-L-prolyl-L-glutamine
N[C@@H](CCCNC(N)=N)C(=O)N1CCC[C@H]1C(=O)NCC(=O)N2CCC[C@H]2C(=O)NCC(O)=O,7.47,32:0,carboxylic_acid:amine_primary,L-Arginyl-L-prolylglycyl-L-prolylglycine
N[C@@H](CCCNC(N)=N)C(=O)N1CCC[C@H]1C(=O)NCC(=O)N2CCC[C@H]2C(=O)NCC(O)=O,3.39,32:0,carboxylic_acid:amine_primary,L-Arginyl-L-prolylglycyl-L-prolylglycine
NCC(=O)N1CCC[C@H]1C(=O)N2CCC[C@H]2C(=O)NCC(=O)NCC(O)=O,8.3,25:0,carboxylic_acid:amine_primary,Glycyl-L-prolyl-L-prolylglycylglycine
NCC(=O)N1CCC[C@H]1C(=O)N2CCC[C@H]2C(=O)NCC(=O)NCC(O)=O,3.28,25:0,carboxylic_acid:amine_primary,Glycyl-L-prolyl-L-prolylglycylglycine
N[C@@H](CCC(O)=O)C(=O)N1CCC[C@H]1C(=O)N2CCC[C@H]2C(=O)NCC(=O)NCC(O)=O,7.97,5:30:0,carboxylic_acid:carboxylic_acid:amine_primary,L-Glutamyl-L-prolyl-L-prolylglycylglycine
N[C@@H](CCC(O)=O)C(=O)N1CCC[C@H]1C(=O)N2CCC[C@H]2C(=O)NCC(=O)NCC(O)=O,4.2,5:30:0,carboxylic_acid:carboxylic_acid:amine_primary,L-Glutamyl-L-prolyl-L-prolylglycylglycine
N[C@@H](CCC(O)=O)C(=O)N1CCC[C@H]1C(=O)N2CCC[C@H]2C(=O)NCC(=O)NCC(O)=O,3.09,5:30:0,carboxylic_acid:carboxylic_acid:amine_primary,L-Glutamyl-L-prolyl-L-prolylglycylglycine
NCCCC[C@H](NC(=O)[C@@H]1CCCN1C(=O)CN)C(=O)N2CCC[C@H]2C(=O)NCC(O)=O,10.24,30:0:17,carboxylic_acid:amine_primary:amine_primary,Glycyl-L-prolyl-L-lysyl-L-prolylglycine
NCCCC[C@H](NC(=O)[C@@H]1CCCN1C(=O)CN)C(=O)N2CCC[C@H]2C(=O)NCC(O)=O,8.12,30:0:17,carboxylic_acid:amine_primary:amine_primary,Glycyl-L-prolyl-L-lysyl-L-prolylglycine
NCCCC[C@H](NC(=O)[C@@H]1CCCN1C(=O)CN)C(=O)N2CCC[C@H]2C(=O)NCC(O)=O,3.41,30:0:17,carboxylic_acid:amine_primary:amine_primary,Glycyl-L-prolyl-L-lysyl-L-prolylglycine
NCCCC[C@H](NC(=O)[C@@H]1CCCN1C(=O)[C@@H](N)CCCNC(N)=N)C(=O)N2CCC[C@H]2C(=O)N[C@@H](CCC(N)=O)C(O)=O,9.85,42:0:17,carboxylic_acid:amine_primary:amine_primary,L-Arginyl-L-prolyl-L-lysyl-L-prolyl-L-glutamine
NCCCC[C@H](NC(=O)[C@@H]1CCCN1C(=O)[C@@H](N)CCCNC(N)=N)C(=O)N2CCC[C@H]2C(=O)N[C@@H](CCC(N)=O)C(O)=O,7.27,42:0:17,carboxylic_acid:amine_primary:amine_primary,L-Arginyl-L-prolyl-L-lysyl-L-prolyl-L-glutamine
NCCCC[C@H](NC(=O)[C@@H]1CCCN1C(=O)[C@@H](N)CCCNC(N)=N)C(=O)N2CCC[C@H]2C(=O)N[C@@H](CCC(N)=O)C(O)=O,4.0,42:0:17,carboxylic_acid:amine_primary:amine_primary,L-Arginyl-L-prolyl-L-lysyl-L-prolyl-L-glutamine
N[C@@H](Cc1ccc(O)cc1)C(=O)N2CCC[C@H]2C(=O)N[C@@H](Cc3ccccc3)C(=O)N4CCC[C@H]4C(=O)NCC(O)=O,9.81,40:0:19,carboxylic_acid:amine_primary:amine_secondary,L-Tyrosyl-L-prolyl-L-phenylalanyl-L-prolylglycine
N[C@@H](Cc1ccc(O)cc1)C(=O)N2CCC[C@H]2C(=O)N[C@@H](Cc3ccccc3)C(=O)N4CCC[C@H]4C(=O)NCC(O)=O,7.42,40:0:19,carboxylic_acid:amine_primary:amine_secondary,L-Tyrosyl-L-prolyl-L-phenylalanyl-L-prolylglycine
N[C@@H](Cc1ccc(O)cc1)C(=O)N2CCC[C@H]2C(=O)N[C@@H](Cc3ccccc3)C(=O)N4CCC[C@H]4C(=O)NCC(O)=O,3.36,40:0:19,carboxylic_acid:amine_primary:amine_secondary,L-Tyrosyl-L-prolyl-L-phenylalanyl-L-prolylglycine
CC(C)CC(NC(=O)C(Cc1ccccc1)NC(=O)CNC(=O)CNC(=O)C(N)Cc2ccc(O)cc2)C(O)=O,9.59,38:28:5,carboxylic_acid:amine_primary:amine_secondary,L-Tyrosylglycylglycyl-L-phenylalanyl-L-leucine (Leucine enkephalin)
CC(C)CC(NC(=O)C(Cc1ccccc1)NC(=O)CNC(=O)CNC(=O)C(N)Cc2ccc(O)cc2)C(O)=O,7.77,38:28:5,carboxylic_acid:amine_primary:amine_secondary,L-Tyrosylglycylglycyl-L-phenylalanyl-L-leucine (Leucine enkephalin)
CC(C)CC(NC(=O)C(Cc1ccccc1)NC(=O)CNC(=O)CNC(=O)C(N)Cc2ccc(O)cc2)C(O)=O,3.52,38:28:5,carboxylic_acid:amine_primary:amine_secondary,L-Tyrosylglycylglycyl-L-phenylalanyl-L-leucine (Leucine enkephalin)
CSCC[C@H](NC(=O)[C@H](Cc1ccccc1)NC(=O)CNC(=O)CNC(=O)[C@@H](N)Cc2ccc(O)cc2)C(O)=O,9.82,38:28:5,carboxylic_acid:amine_primary:amine_secondary,L-Tyrosylglycylglycyl-L-phenylalanyl-L-methionine (Methionine enkephalin)
CSCC[C@H](NC(=O)[C@H](Cc1ccccc1)NC(=O)CNC(=O)CNC(=O)[C@@H](N)Cc2ccc(O)cc2)C(O)=O,7.44,38:28:5,carboxylic_acid:amine_primary:amine_secondary,L-Tyrosylglycylglycyl-L-phenylalanyl-L-methionine (Methionine enkephalin)
CSCC[C@H](NC(=O)[C@H](Cc1ccccc1)NC(=O)CNC(=O)CNC(=O)[C@@H](N)Cc2ccc(O)cc2)C(O)=O,3.46,38:28:5,carboxylic_acid:amine_primary:amine_secondary,L-Tyrosylglycylglycyl-L-phenylalanyl-L-methionine (Methionine enkephalin)
CC(C)C[C@H](NC(=O)[C@@H](N)C(C)C)C(=O)N[C@@H](CO)C(=O)N[C@@H](CCC(O)=O)C(=O)NCC(O)=O,7.74,26:33:9,carboxylic_acid:carboxylic_acid:amine_primary,L-Valyl-L-leucyl-L-seryl-L-glutamylglycine
CC(C)C[C@H](NC(=O)[C@@H](N)C(C)C)C(=O)N[C@@H](CO)C(=O)N[C@@H](CCC(O)=O)C(=O)NCC(O)=O,4.49,26:33:9,carboxylic_acid:carboxylic_acid:amine_primary,L-Valyl-L-leucyl-L-seryl-L-glutamylglycine
CC(C)C[C@H](NC(=O)[C@@H](N)C(C)C)C(=O)N[C@@H](CO)C(=O)N[C@@H](CCC(O)=O)C(=O)NCC(O)=O,3.28,26:33:9,carboxylic_acid:carboxylic_acid:amine_primary,L-Valyl-L-leucyl-L-seryl-L-glutamylglycine
C[C@H](N)C(=O)N[C@@H](CCCCN)C(=O)N[C@@H](C)C(=O)N[C@@H](C)C(=O)N[C@@H](C)C(O)=O,10.24,28:2:11,carboxylic_acid:amine_primary:amine_primary,L-Alanyl-L-lysyl-L-alanyl-L-alanyl-L-alanine
C[C@H](N)C(=O)N[C@@H](CCCCN)C(=O)N[C@@H](C)C(=O)N[C@@H](C)C(=O)N[C@@H](C)C(O)=O,7.64,28:2:11,carboxylic_acid:amine_primary:amine_primary,L-Alanyl-L-lysyl-L-alanyl-L-alanyl-L-alanine
C[C@H](N)C(=O)N[C@@H](CCCCN)C(=O)N[C@@H](C)C(=O)N[C@@H](C)C(=O)N[C@@H](C)C(O)=O,3.42,28:2:11,carboxylic_acid:amine_primary:amine_primary,L-Alanyl-L-lysyl-L-alanyl-L-alanyl-L-alanine
C[C@H](N)C(=O)N[C@H](CCCCN)C(=O)N[C@@H](C)C(=O)N[C@@H](C)C(=O)N[C@@H](C)C(O)=O,10.18,28:2:11,carboxylic_acid:amine_primary:amine_primary,L-Alanyl-D-lysyl-L-alanyl-L-alanyl-L-alanine