SMILES,pKa,Dissociable_Atoms,Functional_Group,Name
O[P](O)(=O)Oc1ccccc1,5.78,0:1,phosphate:phosphate,Phosphoric acid phenyl ester (Phenyl phosphate)
O[P](O)(=O)Oc1ccccc1,5.8,0:1,phosphate:phosphate,Phosphoric acid phenyl ester (Phenyl phosphate)
O[P](O)(=O)Oc1ccccc1,5.72,0:1,phosphate:phosphate,Phosphoric acid phenyl ester (Phenyl phosphate)
O[P](O)(=O)Oc1ccccc1,5.57,0:1,phosphate:phosphate,Phosphoric acid phenyl ester (Phenyl phosphate)
O[P](O)(=O)Oc1ccccc1,5.6,0:1,phosphate:phosphate,Phosphoric acid phenyl ester (Phenyl phosphate)
O[P](O)(=O)Oc1ccccc1,6.28,0:1,phosphate:phosphate,Phosphoric acid phenyl ester (Phenyl phosphate)
O[P](O)(=O)Oc1ccccc1,0.9,0:1,phosphate:phosphate,Phosphoric acid phenyl ester (Phenyl phosphate)
[O-][N+](=O)c1ccc(O[P](O)(O)=O)cc1,5.01,8,phosphate,Phosphoric acid 4-nitrophenyl ester (4-Nitrophenyl phosphate)
O[P](O)(=O)Oc1cccc2ccccc12,5.74,0:1,phosphate:phosphate,Phosphoric acid 1-naphthyl ester (alpha-Naphthyl phosphate)
O[P](O)(=O)Oc1cccc2ccccc12,5.85,0:1,phosphate:phosphate,Phosphoric acid 1-naphthyl ester (alpha-Naphthyl phosphate)
O[P](O)(=O)Oc1cccc2ccccc12,5.62,0:1,phosphate:phosphate,Phosphoric acid 1-naphthyl ester (alpha-Naphthyl phosphate)
O[P](O)(=O)Oc1cccc2ccccc12,5.57,0:1,phosphate:phosphate,Phosphoric acid 1-naphthyl ester (alpha-Naphthyl phosphate)
O[P](O)(=O)Oc1cccc2ccccc12,5.55,0:1,phosphate:phosphate,Phosphoric acid 1-naphthyl ester (alpha-Naphthyl phosphate)
O[P](O)(=O)Oc1cccc2ccccc12,6.27,0:1,phosphate:phosphate,Phosphoric acid 1-naphthyl ester (alpha-Naphthyl phosphate)
O[P](O)(=O)Oc1cccc2ccccc12,0.9,0:1,phosphate:phosphate,Phosphoric acid 1-naphthyl ester (alpha-Naphthyl phosphate)
O[P](O)(=O)Oc1ccc2ccccc2c1,5.74,0:1,phosphate:phosphate,Phosphoric acid 2-naphthyl ester (beta-Naphthyl phosphate)
O[P](O)(=O)Oc1ccc2ccccc2c1,5.55,0:1,phosphate:phosphate,Phosphoric acid 2-naphthyl ester (beta-Naphthyl phosphate)
O[P](O)(=O)Oc1ccc2ccccc2c1,5.48,0:1,phosphate:phosphate,Phosphoric acid 2-naphthyl ester (beta-Naphthyl phosphate)
O[P](O)(=O)Oc1ccc2ccccc2c1,6.19,0:1,phosphate:phosphate,Phosphoric acid 2-naphthyl ester (beta-Naphthyl phosphate)
O[P](O)(=O)Oc1ccc2ccccc2c1,1.2,0:1,phosphate:phosphate,Phosphoric acid 2-naphthyl ester (beta-Naphthyl phosphate)
[O-][N+](=O)c1ccc(O[P](O)(O)=O)cc1,5.02,8,phosphate,Phosphoric acid 4-nitrophenyl ester (p-Nitrophenyl phosphate)
OCC(O)CO[P](O)(O)=O,6.19,0,alcohol,"Propane-1,2,3-triol-1-(dihydrogenphosphate) (Glycerol-1-phosphate)"
OCC(O)CO[P](O)(O)=O,6.22,0,alcohol,"Propane-1,2,3-triol-1-(dihydrogenphosphate) (Glycerol-1-phosphate)"
OCC(O)CO[P](O)(O)=O,6.07,0,alcohol,"Propane-1,2,3-triol-1-(dihydrogenphosphate) (Glycerol-1-phosphate)"
OCC(O)CO[P](O)(O)=O,5.99,0,alcohol,"Propane-1,2,3-triol-1-(dihydrogenphosphate) (Glycerol-1-phosphate)"
OCC(O)CO[P](O)(O)=O,5.94,0,alcohol,"Propane-1,2,3-triol-1-(dihydrogenphosphate) (Glycerol-1-phosphate)"
OCC(O)CO[P](O)(O)=O,5.96,0,alcohol,"Propane-1,2,3-triol-1-(dihydrogenphosphate) (Glycerol-1-phosphate)"
OCC(O)CO[P](O)(O)=O,6.656,0,alcohol,"Propane-1,2,3-triol-1-(dihydrogenphosphate) (Glycerol-1-phosphate)"
OCC(CO)O[P](O)(O)=O,6.11,0:4,alcohol:alcohol,"Propane-1,2,3-triol-2-(dihydrogenphosphate) (Glycerol-2-phosphate)"
OCC(CO)O[P](O)(O)=O,6.23,0:4,alcohol:alcohol,"Propane-1,2,3-triol-2-(dihydrogenphosphate) (Glycerol-2-phosphate)"
OCC(CO)O[P](O)(O)=O,6.01,0:4,alcohol:alcohol,"Propane-1,2,3-triol-2-(dihydrogenphosphate) (Glycerol-2-phosphate)"
OCC(CO)O[P](O)(O)=O,5.96,0:4,alcohol:alcohol,"Propane-1,2,3-triol-2-(dihydrogenphosphate) (Glycerol-2-phosphate)"
OCC(CO)O[P](O)(O)=O,5.97,0:4,alcohol:alcohol,"Propane-1,2,3-triol-2-(dihydrogenphosphate) (Glycerol-2-phosphate)"
OCC(CO)O[P](O)(O)=O,6.65,0:4,alcohol:alcohol,"Propane-1,2,3-triol-2-(dihydrogenphosphate) (Glycerol-2-phosphate)"
OCC(CO)O[P](O)(O)=O,1.335,0:4,alcohol:alcohol,"Propane-1,2,3-triol-2-(dihydrogenphosphate) (Glycerol-2-phosphate)"
O[C@H](CO[P](O)(O)=O)[C@@H](O)[C@@H](O)C=O,6.17,0:9,alcohol:alcohol,D(-)-Ribose-5-dihydrogenphosphate (Ribose-5-phosphate)
O[C@H](CO[P](O)(O)=O)[C@@H](O)[C@@H](O)C=O,6.7,0:9,alcohol:alcohol,D(-)-Ribose-5-dihydrogenphosphate (Ribose-5-phosphate)
O[C@H](CO[P](O)(O)=O)[C@@H](O)[C@@H](O)C=O,1.5,0:9,alcohol:alcohol,D(-)-Ribose-5-dihydrogenphosphate (Ribose-5-phosphate)
OC[C@@H](O)[C@@H](O)[C@H](O)C(=O)CO[P](O)(O)=O,5.84,0,alcohol,D(-)-Fructose-1-dihydrogenphosphate (Fructose-1-phosphate)
OC[C@H]1O[C@H](O[P](O)(O)=O)[C@H](O)[C@@H](O)[C@@H]1O,5.98,0:11,alcohol:alcohol,alpha-D(-)-Glucose-1-dihydrogenphosphate (Glucose-1-phosphate)
OC[C@H]1O[C@H](O[P](O)(O)=O)[C@H](O)[C@@H](O)[C@@H]1O,6.07,0:11,alcohol:alcohol,alpha-D(-)-Glucose-1-dihydrogenphosphate (Glucose-1-phosphate)
OC[C@H]1O[C@H](O[P](O)(O)=O)[C@H](O)[C@@H](O)[C@@H]1O,5.87,0:11,alcohol:alcohol,alpha-D(-)-Glucose-1-dihydrogenphosphate (Glucose-1-phosphate)
OC[C@H]1O[C@H](O[P](O)(O)=O)[C@H](O)[C@@H](O)[C@@H]1O,5.82,0:11,alcohol:alcohol,alpha-D(-)-Glucose-1-dihydrogenphosphate (Glucose-1-phosphate)
OC[C@H]1O[C@H](O[P](O)(O)=O)[C@H](O)[C@@H](O)[C@@H]1O,5.83,0:11,alcohol:alcohol,alpha-D(-)-Glucose-1-dihydrogenphosphate (Glucose-1-phosphate)
OC[C@H]1O[C@H](O[P](O)(O)=O)[C@H](O)[C@@H](O)[C@@H]1O,6.504,0:11,alcohol:alcohol,alpha-D(-)-Glucose-1-dihydrogenphosphate (Glucose-1-phosphate)
OC[C@H]1O[C@H](O[P](O)(O)=O)[C@H](O)[C@@H](O)[C@@H]1O,1.5,0:11,alcohol:alcohol,alpha-D(-)-Glucose-1-dihydrogenphosphate (Glucose-1-phosphate)
CCCCO[P]([O-])(=O)OCCCC,1.0,5,phosphate,Phosphoric acid dibutyl ester (Dibutyl phosphate)
OC1C(O)C(O)(CO[P](O)(O)=O)OC1CO[P](O)(O)=O,6.66,0:3,alcohol:alcohol,"D(-)-Fructose-1,6-bis(dihydrogenphosphate) (Fructose-1,6-diphosphate)"
OC1C(O)C(O)(CO[P](O)(O)=O)OC1CO[P](O)(O)=O,7.28,0:3,alcohol:alcohol,"D(-)-Fructose-1,6-bis(dihydrogenphosphate) (Fructose-1,6-diphosphate)"
OC1C(O)C(O)(CO[P](O)(O)=O)OC1CO[P](O)(O)=O,5.86,0:3,alcohol:alcohol,"D(-)-Fructose-1,6-bis(dihydrogenphosphate) (Fructose-1,6-diphosphate)"
OC1C(O)C(O)(CO[P](O)(O)=O)OC1CO[P](O)(O)=O,6.43,0:3,alcohol:alcohol,"D(-)-Fructose-1,6-bis(dihydrogenphosphate) (Fructose-1,6-diphosphate)"
CO[P]([O-])(=O)O[P](O)(O)=O,6.37,2:6,phosphate:phosphate,Diphosphoric acid methyl ester (Methyl diphosphate)
CO[P]([O-])(=O)O[P](O)(O)=O,1.6,2:6,phosphate:phosphate,Diphosphoric acid methyl ester (Methyl diphosphate)
CCCCO[P]([O-])(=O)O[P](O)(O)=O,6.65,5:9,phosphate:phosphate,Diphosphoric acid butyl ester (Butyl diphosphate)
CCCCO[P]([O-])(=O)O[P](O)(O)=O,1.3,5:9,phosphate:phosphate,Diphosphoric acid butyl ester (Butyl diphosphate)
O[P](O)(=O)O[P]([O-])(=O)Oc1ccccc1,6.32,0:1,phosphate:phosphate,Diphosphoric acid phenyl ester (Phenyl diphosphate)
O[P](O)(=O)O[P]([O-])(=O)Oc1ccccc1,1.3,0:1,phosphate:phosphate,Diphosphoric acid phenyl ester (Phenyl diphosphate)
CO[P]([O-])(=O)O[P]([O-])(=O)O[P](O)(O)=O,6.45,2,phosphate,Triphosphoric acid methyl ester (Methyl triphosphate)
CCCC[S](CCCC)[P](O)(O)=S,0.08,9,phosphate,"Phosphorodithioic acid O,O-dibutyl ester (Dibutyldithiophosphoric acid)"
CC(C)C[S](CC(C)C)[P](O)(O)=S,0.04,9,phosphate,"Phosphorodithioic acid O,O-bis(2-methylpropyl) ester (Diisobutyldithiophosphoric acid)"
C[As](O)(O)=O,8.66,2:3,alcohol:alcohol,Methylarsonic acid
C[As](O)(O)=O,8.77,2:3,alcohol:alcohol,Methylarsonic acid
C[As](O)(O)=O,3.96,2:3,alcohol:alcohol,Methylarsonic acid
C[As](O)(O)=O,4.19,2:3,alcohol:alcohol,Methylarsonic acid
CC[As](O)(O)=O,9.19,3:4,alcohol:alcohol,Ethylarsonic acid
CC[As](O)(O)=O,4.24,3:4,alcohol:alcohol,Ethylarsonic acid
CCC[As](O)(O)=O,9.36,4:5,alcohol:alcohol,Propylarsonic acid
CCC[As](O)(O)=O,4.34,4:5,alcohol:alcohol,Propylarsonic acid
CCCC[As](O)(O)=O,9.31,5:6,alcohol:alcohol,Butylarsonic acid
CCCC[As](O)(O)=O,4.37,5:6,alcohol:alcohol,Butylarsonic acid
CCCCC[As](O)(O)=O,9.39,6:7,alcohol:alcohol,Pentylarsonic acid
CCCCC[As](O)(O)=O,4.34,6:7,alcohol:alcohol,Pentylarsonic acid
CCCCCC[As](O)(O)=O,9.41,7:8,alcohol:alcohol,Hexylarsonic acid
CCCCCC[As](O)(O)=O,4.34,7:8,alcohol:alcohol,Hexylarsonic acid
O[As](O)(=O)c1ccccc1,8.25,0:2,alcohol:alcohol,Benzenearsonic acid
O[As](O)(=O)c1ccccc1,8.75,0:2,alcohol:alcohol,Benzenearsonic acid
O[As](O)(=O)c1ccccc1,3.39,0:2,alcohol:alcohol,Benzenearsonic acid
O[As](O)(=O)c1ccccc1,3.61,0:2,alcohol:alcohol,Benzenearsonic acid
Oc1ccc(cc1)[As](O)(O)=O,10.24,0:8:9,phenol:alcohol:alcohol,4-Hydroxybenzenearsonic acid
Oc1ccc(cc1)[As](O)(O)=O,8.65,0:8:9,phenol:alcohol:alcohol,4-Hydroxybenzenearsonic acid
Oc1ccc(cc1)[As](O)(O)=O,3.85,0:8:9,phenol:alcohol:alcohol,4-Hydroxybenzenearsonic acid
COc1ccccc1[As](O)(O)=O,9.4,9:10,alcohol:alcohol,2-Methoxybenzenearsonic acid
COc1ccccc1[As](O)(O)=O,4.08,9:10,alcohol:alcohol,2-Methoxybenzenearsonic acid
COc1ccc(cc1)[As](O)(O)=O,8.93,9:10,alcohol:alcohol,4-Methoxybenzenearsonic acid
COc1ccc(cc1)[As](O)(O)=O,3.79,9:10,alcohol:alcohol,4-Methoxybenzenearsonic acid
COc1ccc(c(OC)c1)[As](O)(O)=O,9.55,11:12,alcohol:alcohol,"2,4-Dimethoxybenzenearsonic acid"
COc1ccc(c(OC)c1)[As](O)(O)=O,4.35,11:12,alcohol:alcohol,"2,4-Dimethoxybenzenearsonic acid"
C[As](C)(O)=O,6.14,1,arsenic_acid,Dimethylarsinic acid (Cacodylic acid)
C[As](C)(O)=O,1.8,1,arsenic_acid,Dimethylarsinic acid (Cacodylic acid)
CC[As](O)(=O)CC,6.43,2,arsenic_compound,Diethylarsinic acid
CC[As](O)(=O)CC,1.5,2,arsenic_compound,Diethylarsinic acid
CCC[As](O)(=O)CCC,6.52,3,arsenic_compound,Dipropylarsinic acid
CCC[As](O)(=O)CCC,1.6,3,arsenic_compound,Dipropylarsinic acid
CCCC[As](O)(=O)CCCC,6.53,5,arsenic_acid,Dibutylarsinic acid
CCCC[As](O)(=O)CCCC,1.5,5,arsenic_acid,Dibutylarsinic acid
CCCCC[As](O)(=O)CCCCC,6.54,6,arsenic_acid,Dipentylarsinic acid
CCCCC[As](O)(=O)CCCCC,1.7,6,arsenic_acid,Dipentylarsinic acid
Oc1ccccc1,9.78,0,phenol,Hydroxybenzene (Phenol)
Oc1ccccc1,9.64,0,phenol,Hydroxybenzene (Phenol)
Oc1ccccc1,9.82,0,phenol,Hydroxybenzene (Phenol)
Oc1ccccc1,9.997,0,phenol,Hydroxybenzene (Phenol)
Cc1ccccc1O,10.09,7,phenol,2-Methylphenol (o-Cresol)
Cc1ccccc1O,10.31,7,phenol,2-Methylphenol (o-Cresol)
Cc1cccc(O)c1,10.095,6,phenol,3-Methylphenol (m-Cresol)
Cc1ccc(O)cc1,10.04,5,phenol,4-Methylphenol (p-Cresol)
Cc1ccc(O)cc1,9.87,5,phenol,4-Methylphenol (p-Cresol)
Cc1ccc(O)cc1,10.269,5,phenol,4-Methylphenol (p-Cresol)
CCc1cccc(O)c1,10.069,7,phenol,3-Ethylphenol
CCCc1ccccc1O,10.5,9,phenol,2-(Propyl)phenol
CC(C)(C)c1ccc(O)cc1,10.31,8,phenol,4-(2-Methyl-2-propyl)phenol
Cc1cccc(O)c1C,10.537,6,phenol,"2,3-Dimethylphenol (vic-o-Xylenol)"
Cc1ccc(C)c(O)c1,10.405,7,phenol,"2,5-Dimethylphenol (p-Xylenol)"
Cc1cccc(C)c1O,10.622,8,phenol,"2,6-Dimethylphenol (vic-m-Xylenol)"
Cc1cc(C)cc(O)c1,9.98,7,phenol,"3,5-Dimethylphenol (sym-m-Xylenol)"
Cc1cc(C)cc(O)c1,10.196,7,phenol,"3,5-Dimethylphenol (sym-m-Xylenol)"
Cc1cc(C)c(C)c(O)c1,10.67,8,phenol,"2,3,5-Trimethylphenol"
Cc1cc(C)c(O)cc1C,10.57,6,phenol,"2,4,5-Trimethylphenol"
Cc1cc(C)c(O)c(C)c1,10.89,6,phenol,"2,4,6-Trimethylphenol"
Cc1cc(O)cc(C)c1C,10.25,4,phenol,"3,4,5-Trimethylphenol"
Oc1ccccc1CC=C,10.27,0,phenol,2-Allylphenol
Oc1ccc(CC=C)cc1,10.23,0,phenol,4-Allylphenol (Chavicol)
Oc1ccccc1F,8.49,0,phenol,2-Fluorophenol
Oc1ccccc1F,8.705,0,phenol,2-Fluorophenol
Oc1cccc(F)c1,8.81,0,phenol,3-Fluorophenol
Oc1cccc(F)c1,9.206,0,phenol,3-Fluorophenol
Oc1ccc(F)cc1,9.46,0,phenol,4-Fluorophenol
Oc1ccc(F)cc1,9.908,0,phenol,4-Fluorophenol
Oc1ccccc1Br,8.22,0,phenol,2-Bromophenol
Oc1ccccc1Br,8.444,0,phenol,2-Bromophenol
Oc1cccc(Br)c1,8.75,0,phenol,3-Bromophenol
Oc1cccc(Br)c1,9.031,0,phenol,3-Bromophenol
Oc1ccc(Br)cc1,9.08,0,phenol,4-Bromophenol
Oc1ccc(Br)cc1,9.02,0,phenol,4-Bromophenol
Oc1ccc(Br)cc1,9.347,0,phenol,4-Bromophenol
Oc1cc(Br)cc(Br)c1,8.056,0,phenol,"3,5-Dibromophenol"
Oc1ccccc1I,8.51,0,phenol,2-Iodophenol
Oc1cccc(I)c1,8.74,0,phenol,3-Iodophenol
Oc1cccc(I)c1,9.033,0,phenol,3-Iodophenol
Oc1ccc(I)cc1,9.332,0,phenol,4-Iodophenol
Oc1cc(I)cc(I)c1,8.103,0,phenol,"3,5-Diiodophenol"
Oc1ccccc1[N+]([O-])=O,7.04,9,n_oxide,2-Nitrophenol
Oc1ccccc1[N+]([O-])=O,7.424,9,n_oxide,2-Nitrophenol
Oc1ccccc1[N+]([O-])=O,7.23,9,n_oxide,2-Nitrophenol
Oc1ccccc1[N+]([O-])=O,7.085,9,n_oxide,2-Nitrophenol
Oc1cccc(c1)[N+]([O-])=O,8.16,11,n_oxide,3-Nitrophenol
Oc1cccc(c1)[N+]([O-])=O,8.03,11,n_oxide,3-Nitrophenol
Oc1cccc(c1)[N+]([O-])=O,8.2,11,n_oxide,3-Nitrophenol
Oc1cccc(c1)[N+]([O-])=O,8.29,11,n_oxide,3-Nitrophenol
Oc1cccc(c1)[N+]([O-])=O,8.37,11,n_oxide,3-Nitrophenol
Oc1ccc(cc1)[N+]([O-])=O,6.96,11,n_oxide,4-Nitrophenol
Oc1ccc(cc1)[N+]([O-])=O,6.84,11,n_oxide,4-Nitrophenol
Oc1ccc(cc1)[N+]([O-])=O,7.25,11,n_oxide,4-Nitrophenol
Oc1ccc(cc1)[N+]([O-])=O,7.149,11,n_oxide,4-Nitrophenol
Cc1cc(O)ccc1[N+]([O-])=O,7.16,12,n_oxide,3-Methyl-4-nitrophenol
Cc1cc(O)ccc1[N+]([O-])=O,7.596,12,n_oxide,3-Methyl-4-nitrophenol
Cc1cc(O)ccc1[N+]([O-])=O,7.409,12,n_oxide,3-Methyl-4-nitrophenol
Cc1cc(O)ccc1[N+]([O-])=O,7.257,12,n_oxide,3-Methyl-4-nitrophenol
Cc1cc(cc(C)c1O)[N+]([O-])=O,7.22,15,n_oxide,"2,6-Dimethyl-4-nitrophenol"
Cc1cc(O)cc(C)c1[N+]([O-])=O,8.25,15,n_oxide,"3,5-Dimethyl-4-nitrophenol"
Oc1ccc(cc1[N+]([O-])=O)[N+]([O-])=O,3.92,10,n_oxide,"2,4-Dinitrophenol"
Oc1ccc(cc1[N+]([O-])=O)[N+]([O-])=O,4.114,10,n_oxide,"2,4-Dinitrophenol"
Oc1cc(ccc1[N+]([O-])=O)[N+]([O-])=O,5.25,10,n_oxide,"2,5-Dinitrophenol"
Oc1c(cccc1[N+]([O-])=O)[N+]([O-])=O,3.72,10,n_oxide,"2,6-Dinitrophenol"
Oc1ccc(c(c1)[N+]([O-])=O)[N+]([O-])=O,5.42,12,n_oxide,"3,4-Dinitrophenol"
Oc1cc(cc(c1)[N+]([O-])=O)[N+]([O-])=O,6.732,12,n_oxide,"3,5-Dinitrophenol"
Oc1c(cc(cc1[N+]([O-])=O)[N+]([O-])=O)[N+]([O-])=O,0.11,11,n_oxide,"2,4,6-Trinitrophenol (Picric acid)"
Oc1c(cc(cc1[N+]([O-])=O)[N+]([O-])=O)[N+]([O-])=O,0.2,11,n_oxide,"2,4,6-Trinitrophenol (Picric acid)"
Oc1c(cc(cc1[N+]([O-])=O)[N+]([O-])=O)[N+]([O-])=O,0.35,11,n_oxide,"2,4,6-Trinitrophenol (Picric acid)"
Oc1ccc(cc1)N=O,6.33,0,phenol,4-Nitrosophenol
Oc1ccccc1C#N,6.86,11,nitrile,2-Cyanophenol
Oc1cccc(c1)C#N,8.36,13,nitrile,3-Cyanophenol
Oc1cccc(c1)C#N,8.57,13,nitrile,3-Cyanophenol
Oc1ccc(cc1)C#N,7.74,13,nitrile,4-Cyanophenol
Oc1ccc(cc1)C#N,7.97,13,nitrile,4-Cyanophenol
Oc1ccc(cc1)[S](O)(=O)=O,8.62,0,phenol,4-Hydroxybenzenesulfonic acid (4-Sulfophenol)
Oc1ccc(cc1)[S](O)(=O)=O,8.51,0,phenol,4-Hydroxybenzenesulfonic acid (4-Sulfophenol)
Oc1ccc(cc1)[S](O)(=O)=O,8.41,0,phenol,4-Hydroxybenzenesulfonic acid (4-Sulfophenol)
Oc1ccc(cc1)[S](O)(=O)=O,9.22,0,phenol,4-Hydroxybenzenesulfonic acid (4-Sulfophenol)
Oc1ccc(cc1)[S](O)(=O)=O,9.053,0,phenol,4-Hydroxybenzenesulfonic acid (4-Sulfophenol)
Oc1ccc(cc1)[S](O)(=O)=O,8.921,0,phenol,4-Hydroxybenzenesulfonic acid (4-Sulfophenol)
Oc1ccccc1[P](O)(O)=O,15.4,0:7:8,phenol:phosphate:phosphate,2-Hydroxybenzenephosphonic acid (2-Phosphonophenol)
Oc1ccccc1[P](O)(O)=O,6.23,0:7:8,phenol:phosphate:phosphate,2-Hydroxybenzenephosphonic acid (2-Phosphonophenol)
Oc1ccccc1[P](O)(O)=O,6.48,0:7:8,phenol:phosphate:phosphate,2-Hydroxybenzenephosphonic acid (2-Phosphonophenol)
Oc1ccccc1[P](O)(O)=O,1.5,0:7:8,phenol:phosphate:phosphate,2-Hydroxybenzenephosphonic acid (2-Phosphonophenol)
Oc1ccccc1[P](O)(O)=O,1.7,0:7:8,phenol:phosphate:phosphate,2-Hydroxybenzenephosphonic acid (2-Phosphonophenol)
Oc1ccccc1[As](O)(O)=O,13.3,0:8:9,phenol:alcohol:alcohol,2-Hydroxybenzenearsonic acid (2-Arsonophenol)
Oc1ccccc1[As](O)(O)=O,7.5,0:8:9,phenol:alcohol:alcohol,2-Hydroxybenzenearsonic acid (2-Arsonophenol)
Oc1ccccc1[As](O)(O)=O,7.92,0:8:9,phenol:alcohol:alcohol,2-Hydroxybenzenearsonic acid (2-Arsonophenol)
Oc1ccccc1[As](O)(O)=O,3.83,0:8:9,phenol:alcohol:alcohol,2-Hydroxybenzenearsonic acid (2-Arsonophenol)
Oc1ccccc1[As](O)(O)=O,4.02,0:8:9,phenol:alcohol:alcohol,2-Hydroxybenzenearsonic acid (2-Arsonophenol)
OC(=O)Cc1cccc(O)c1,9.87,0:9,carboxylic_acid:phenol,3-Hydroxyphenylacetic acid
OC(=O)Cc1cccc(O)c1,4.17,0:9,carboxylic_acid:phenol,3-Hydroxyphenylacetic acid
OC(=O)Cc1ccc(O)cc1,9.88,0:8,carboxylic_acid:phenol,4-Hydroxyphenylacetic acid
OC(=O)Cc1ccc(O)cc1,4.25,0:8,carboxylic_acid:phenol,4-Hydroxyphenylacetic acid
OC(=O)CCc1cccc(O)c1,9.91,0:10,carboxylic_acid:phenol,3-(3-Hydroxyphenyl)propanoic acid
OC(=O)CCc1cccc(O)c1,4.4,0:10,carboxylic_acid:phenol,3-(3-Hydroxyphenyl)propanoic acid
OC(=O)CCc1ccc(O)cc1,10.03,0:9,carboxylic_acid:phenol,3-(4-Hydroxyphenyl)propanoic acid
OC(=O)CCc1ccc(O)cc1,4.39,0:9,carboxylic_acid:phenol,3-(4-Hydroxyphenyl)propanoic acid
COc1cc(CC(O)=O)ccc1O,9.76,7:12,carboxylic_acid:phenol,4-Hydroxy-3-methoxyphenylacetic acid
COc1cc(CC(O)=O)ccc1O,4.31,7:12,carboxylic_acid:phenol,4-Hydroxy-3-methoxyphenylacetic acid
COc1cc(CCC(O)=O)ccc1O,9.87,8:13,carboxylic_acid:phenol,3-(4-Hydroxy-3-methoxyphenyl)propanoic acid
COc1cc(CCC(O)=O)ccc1O,4.48,8:13,carboxylic_acid:phenol,3-(4-Hydroxy-3-methoxyphenyl)propanoic acid
OC(=O)[C@H](Cc1ccc(O)cc1)NC=O,9.63,0:12,carboxylic_acid:amine_secondary,N-Formyl-L-tyrosine
OC(=O)[C@H](Cc1ccc(O)cc1)NC=O,3.11,0:12,carboxylic_acid:amine_secondary,N-Formyl-L-tyrosine
CC(=O)NC(Cc1ccc(O)cc1)C(O)=O,9.88,10,phenol,N-Acetyl-DL-tyrosine
OC(=O)[C@H](Cc1ccc(O)cc1)NC(=O)[C@@H]2CCC(=O)N2,10.25,0:12,carboxylic_acid:amine_secondary,L-Pyroglutamyl-L-tyrosine
OC(=O)[C@H](Cc1ccc(O)cc1)NC(=O)[C@@H]2CCC(=O)N2,3.6,0:12,carboxylic_acid:amine_secondary,L-Pyroglutamyl-L-tyrosine
NC(=S)c1ccc(O)cc1,8.28,7,phenol,4-Thiocarbamylphenol
NC(=O)[C@@H]1CCCN1C(=O)[C@H](Cc2ccc(O)cc2)NC(=O)[C@@H]3CCC(=O)N3,9.82,16,phenol,L-Pyroglutamyl-L-tyrosyl-L-proline amide
COc1ccccc1O,9.98,8,phenol,2-Methoxyphenol
COC1(C=CC=CC1O)N=O,6.59,8,alcohol,2-Methoxy-2-nitrosophenol
COC1(C=CC=CC1O)N=O,6.38,8,alcohol,2-Methoxy-2-nitrosophenol
COc1cccc(O)c1,9.652,7,phenol,3-Methoxyphenol
COc1ccc(O)cc1,9.96,6,phenol,4-Methoxyphenol
COc1ccc(O)cc1,10.21,6,phenol,4-Methoxyphenol
CCOc1cccc(O)c1,9.655,8,phenol,3-Ethoxyphenol
CCOc1cc(O)cc(OCC)c1,9.37,6,phenol,"3,5-Diethoxyphenol"
OC(=O)c1ccccc1O,13.4,1:8,carboxylic_acid:phenol,2-Hydroxybenzoic acid (Salicylic acid)
OC(=O)c1ccccc1O,13.0,1:8,carboxylic_acid:phenol,2-Hydroxybenzoic acid (Salicylic acid)
OC(=O)c1ccccc1O,13.3,1:8,carboxylic_acid:phenol,2-Hydroxybenzoic acid (Salicylic acid)
OC(=O)c1ccccc1O,13.1,1:8,carboxylic_acid:phenol,2-Hydroxybenzoic acid (Salicylic acid)
OC(=O)c1ccccc1O,13.7,1:8,carboxylic_acid:phenol,2-Hydroxybenzoic acid (Salicylic acid)
OC(=O)c1ccccc1O,2.8,1:8,carboxylic_acid:phenol,2-Hydroxybenzoic acid (Salicylic acid)
OC(=O)c1ccccc1O,2.79,1:8,carboxylic_acid:phenol,2-Hydroxybenzoic acid (Salicylic acid)
OC(=O)c1ccccc1O,2.75,1:8,carboxylic_acid:phenol,2-Hydroxybenzoic acid (Salicylic acid)
OC(=O)c1ccccc1O,2.84,1:8,carboxylic_acid:phenol,2-Hydroxybenzoic acid (Salicylic acid)
OC(=O)c1ccccc1O,2.86,1:8,carboxylic_acid:phenol,2-Hydroxybenzoic acid (Salicylic acid)
OC(=O)c1ccccc1O,3.02,1:8,carboxylic_acid:phenol,2-Hydroxybenzoic acid (Salicylic acid)
OC(=O)c1ccccc1O,3.16,1:8,carboxylic_acid:phenol,2-Hydroxybenzoic acid (Salicylic acid)
OC(=O)c1ccccc1O,3.023,1:8,carboxylic_acid:phenol,2-Hydroxybenzoic acid (Salicylic acid)
OC(=O)c1ccccc1O,2.972,1:8,carboxylic_acid:phenol,2-Hydroxybenzoic acid (Salicylic acid)
OC(=O)c1ccccc1O,2.959,1:8,carboxylic_acid:phenol,2-Hydroxybenzoic acid (Salicylic acid)
OC(=O)c1cccc(O)c1,9.62,8:0,phenol:carboxylic_acid,3-Hydroxybenzoic acid
OC(=O)c1cccc(O)c1,9.9,8:0,phenol:carboxylic_acid,3-Hydroxybenzoic acid
OC(=O)c1cccc(O)c1,3.99,8:0,phenol:carboxylic_acid,3-Hydroxybenzoic acid
OC(=O)c1cccc(O)c1,3.86,8:0,phenol:carboxylic_acid,3-Hydroxybenzoic acid
OC(=O)c1cccc(O)c1,3.9,8:0,phenol:carboxylic_acid,3-Hydroxybenzoic acid
OC(=O)c1cccc(O)c1,3.98,8:0,phenol:carboxylic_acid,3-Hydroxybenzoic acid
OC(=O)c1cccc(O)c1,4.01,8:0,phenol:carboxylic_acid,3-Hydroxybenzoic acid
OC(=O)c1cccc(O)c1,4.13,8:0,phenol:carboxylic_acid,3-Hydroxybenzoic acid
OC(=O)c1cccc(O)c1,4.16,8:0,phenol:carboxylic_acid,3-Hydroxybenzoic acid
OC(=O)c1cccc(O)c1,4.08,8:0,phenol:carboxylic_acid,3-Hydroxybenzoic acid
OC(=O)c1ccc(O)cc1,8.98,7:0,phenol:carboxylic_acid,4-Hydroxybenzoic acid
OC(=O)c1ccc(O)cc1,9.46,7:0,phenol:carboxylic_acid,4-Hydroxybenzoic acid
OC(=O)c1ccc(O)cc1,4.37,7:0,phenol:carboxylic_acid,4-Hydroxybenzoic acid
OC(=O)c1ccc(O)cc1,4.597,7:0,phenol:carboxylic_acid,4-Hydroxybenzoic acid
OC(=O)c1ccc(O)cc1,4.581,7:0,phenol:carboxylic_acid,4-Hydroxybenzoic acid
OC(=O)c1ccc(O)cc1,4.577,7:0,phenol:carboxylic_acid,4-Hydroxybenzoic acid