SMILES,pKa,Dissociable_Atoms,Functional_Group,Name,Dissociable_Atoms_Ordered,Functional_Group_Ordered,Dissociation_Order
OC(=O)CN(CC(O)=O)CC(=O)Nc1ccccc1,6.1,0:7,carboxylic_acid:carboxylic_acid,N-(Phenylcarbamylmethyl)iminodiacetic acid,0:7,carboxylic_acid:carboxylic_acid,0(carboxylic_acid) > 7(carboxylic_acid)
OC(=O)CN(CC(O)=O)CC(=O)Nc1ccccc1,2.07,0:7,carboxylic_acid:carboxylic_acid,N-(Phenylcarbamylmethyl)iminodiacetic acid,0:7,carboxylic_acid:carboxylic_acid,0(carboxylic_acid) > 7(carboxylic_acid)
Cc1cccc(C)c1NC(=O)CN(CC(O)=O)CC(O)=O,5.88,15:19,carboxylic_acid:carboxylic_acid,"N-(2,6-Dimethylphenylcarbamylmethyl)iminodiacetic acid",15:19,carboxylic_acid:carboxylic_acid,15(carboxylic_acid) > 19(carboxylic_acid)
Cc1cccc(C)c1NC(=O)CN(CC(O)=O)CC(O)=O,2.16,15:19,carboxylic_acid:carboxylic_acid,"N-(2,6-Dimethylphenylcarbamylmethyl)iminodiacetic acid",15:19,carboxylic_acid:carboxylic_acid,15(carboxylic_acid) > 19(carboxylic_acid)
Cc1cc(C)c(NC(=O)CN(CC(O)=O)CC(O)=O)c(C)c1,6.01,13:17,carboxylic_acid:carboxylic_acid,"N-(2,4,6-Trimethylphenylcarbamylmethyl)iminodiacetic acid",13:17,carboxylic_acid:carboxylic_acid,13(carboxylic_acid) > 17(carboxylic_acid)
Cc1cc(C)c(NC(=O)CN(CC(O)=O)CC(O)=O)c(C)c1,2.19,13:17,carboxylic_acid:carboxylic_acid,"N-(2,4,6-Trimethylphenylcarbamylmethyl)iminodiacetic acid",13:17,carboxylic_acid:carboxylic_acid,13(carboxylic_acid) > 17(carboxylic_acid)
CCc1ccc(NC(=O)CN(CC(O)=O)CC(O)=O)c(CC)c1,5.77,13:17,carboxylic_acid:carboxylic_acid,"N-(2,4-Diethylphenylcarbamylmethyl)iminodiacetic acid",13:17,carboxylic_acid:carboxylic_acid,13(carboxylic_acid) > 17(carboxylic_acid)
CCc1ccc(NC(=O)CN(CC(O)=O)CC(O)=O)c(CC)c1,2.14,13:17,carboxylic_acid:carboxylic_acid,"N-(2,4-Diethylphenylcarbamylmethyl)iminodiacetic acid",13:17,carboxylic_acid:carboxylic_acid,13(carboxylic_acid) > 17(carboxylic_acid)
CC(C)c1cccc(C(C)C)c1NC(=O)CN(CC(O)=O)CC(O)=O,5.83,19:23,carboxylic_acid:carboxylic_acid,"N-(2,6-Di-2-propylphenylcarbamylmethyl)iminodiacetic acid",19:23,carboxylic_acid:carboxylic_acid,19(carboxylic_acid) > 23(carboxylic_acid)
CC(C)c1cccc(C(C)C)c1NC(=O)CN(CC(O)=O)CC(O)=O,2.2,19:23,carboxylic_acid:carboxylic_acid,"N-(2,6-Di-2-propylphenylcarbamylmethyl)iminodiacetic acid",19:23,carboxylic_acid:carboxylic_acid,19(carboxylic_acid) > 23(carboxylic_acid)
NC(=O)CCN(CC(O)=O)CC(O)=O,8.46,8:12,carboxylic_acid:carboxylic_acid,N-(2-Carbamylethyl)iminodiacetic acid,8:12,carboxylic_acid:carboxylic_acid,8(carboxylic_acid) > 12(carboxylic_acid)
NC(=O)CCN(CC(O)=O)CC(O)=O,8.52,8:12,carboxylic_acid:carboxylic_acid,N-(2-Carbamylethyl)iminodiacetic acid,8:12,carboxylic_acid:carboxylic_acid,8(carboxylic_acid) > 12(carboxylic_acid)
NC(=O)CCN(CC(O)=O)CC(O)=O,2.41,8:12,carboxylic_acid:carboxylic_acid,N-(2-Carbamylethyl)iminodiacetic acid,8:12,carboxylic_acid:carboxylic_acid,8(carboxylic_acid) > 12(carboxylic_acid)
NC(=O)CCN(CC(O)=O)CC(O)=O,2.47,8:12,carboxylic_acid:carboxylic_acid,N-(2-Carbamylethyl)iminodiacetic acid,8:12,carboxylic_acid:carboxylic_acid,8(carboxylic_acid) > 12(carboxylic_acid)
OC(=O)CNC(=O)CN(CC(O)=O)CC(O)=O,6.92,0:11:15,carboxylic_acid:carboxylic_acid:carboxylic_acid,"N,N-Bis(carboxymethyl)glycylglycine",0:11:15,carboxylic_acid:carboxylic_acid:carboxylic_acid,0(carboxylic_acid) > 11(carboxylic_acid) > 15(carboxylic_acid)
OC(=O)CNC(=O)CN(CC(O)=O)CC(O)=O,3.31,0:11:15,carboxylic_acid:carboxylic_acid:carboxylic_acid,"N,N-Bis(carboxymethyl)glycylglycine",0:11:15,carboxylic_acid:carboxylic_acid:carboxylic_acid,0(carboxylic_acid) > 11(carboxylic_acid) > 15(carboxylic_acid)
OC(=O)CNC(=O)CN(CC(O)=O)CC(O)=O,2.11,0:11:15,carboxylic_acid:carboxylic_acid:carboxylic_acid,"N,N-Bis(carboxymethyl)glycylglycine",0:11:15,carboxylic_acid:carboxylic_acid:carboxylic_acid,0(carboxylic_acid) > 11(carboxylic_acid) > 15(carboxylic_acid)
OC(=O)CNC(=O)CNC(=O)CN(CC(O)=O)CC(O)=O,6.56,0:15:19,carboxylic_acid:carboxylic_acid:carboxylic_acid,"N,N-Bis(carboxymethyl)glycylglycylglycine",0:15:19,carboxylic_acid:carboxylic_acid:carboxylic_acid,0(carboxylic_acid) > 15(carboxylic_acid) > 19(carboxylic_acid)
OC(=O)CNC(=O)CNC(=O)CN(CC(O)=O)CC(O)=O,3.55,0:15:19,carboxylic_acid:carboxylic_acid:carboxylic_acid,"N,N-Bis(carboxymethyl)glycylglycylglycine",0:15:19,carboxylic_acid:carboxylic_acid:carboxylic_acid,0(carboxylic_acid) > 15(carboxylic_acid) > 19(carboxylic_acid)
OC(=O)CNC(=O)CNC(=O)CN(CC(O)=O)CC(O)=O,2.14,0:15:19,carboxylic_acid:carboxylic_acid:carboxylic_acid,"N,N-Bis(carboxymethyl)glycylglycylglycine",0:15:19,carboxylic_acid:carboxylic_acid:carboxylic_acid,0(carboxylic_acid) > 15(carboxylic_acid) > 19(carboxylic_acid)
OC(=O)CNC(=O)CNC(=O)CNC(=O)CN(CC(O)=O)CC(O)=O,6.34,0:19:23,carboxylic_acid:carboxylic_acid:carboxylic_acid,"N,N-Bis(carboxymethyl)glycylglycylglycylglycine",0:19:23,carboxylic_acid:carboxylic_acid:carboxylic_acid,0(carboxylic_acid) > 19(carboxylic_acid) > 23(carboxylic_acid)
OC(=O)CNC(=O)CNC(=O)CNC(=O)CN(CC(O)=O)CC(O)=O,3.45,0:19:23,carboxylic_acid:carboxylic_acid:carboxylic_acid,"N,N-Bis(carboxymethyl)glycylglycylglycylglycine",0:19:23,carboxylic_acid:carboxylic_acid:carboxylic_acid,0(carboxylic_acid) > 19(carboxylic_acid) > 23(carboxylic_acid)
OC(=O)CNC(=O)CNC(=O)CNC(=O)CN(CC(O)=O)CC(O)=O,2.22,0:19:23,carboxylic_acid:carboxylic_acid:carboxylic_acid,"N,N-Bis(carboxymethyl)glycylglycylglycylglycine",0:19:23,carboxylic_acid:carboxylic_acid:carboxylic_acid,0(carboxylic_acid) > 19(carboxylic_acid) > 23(carboxylic_acid)
OC(=O)CN(CC(O)=O)CC(=O)Nc1ccc(Br)cc1,5.79,0:7:12,carboxylic_acid:carboxylic_acid:amine_secondary,N-(4-Bromophenylcarbamylmethyl)iminodiacetic acid,0:7:12,carboxylic_acid:carboxylic_acid:amine_secondary,0(carboxylic_acid) > 7(carboxylic_acid) > 12(amine_secondary)
OC(=O)CN(CC(O)=O)CC(=O)Nc1ccc(Br)cc1,2.09,0:7:12,carboxylic_acid:carboxylic_acid:amine_secondary,N-(4-Bromophenylcarbamylmethyl)iminodiacetic acid,0:7:12,carboxylic_acid:carboxylic_acid:amine_secondary,0(carboxylic_acid) > 7(carboxylic_acid) > 12(amine_secondary)
OC(=O)CN(CC(O)=O)CC(=O)Nc1ccc(Br)cc1,1.5,0:7:12,carboxylic_acid:carboxylic_acid:amine_secondary,N-(4-Bromophenylcarbamylmethyl)iminodiacetic acid,0:7:12,carboxylic_acid:carboxylic_acid:amine_secondary,0(carboxylic_acid) > 7(carboxylic_acid) > 12(amine_secondary)
OC(=O)CN(CC(O)=O)C1C(=O)NC(=O)NC1=O,9.55,0:7:12,carboxylic_acid:carboxylic_acid:amine_secondary,"5-Amino-2,4,6-trioxo-1,3-perhydrodiazine-N,N-diacetic acid (Uramil-N,N-diacetic acid)",0:7:12,carboxylic_acid:carboxylic_acid:amine_secondary,0(carboxylic_acid) > 7(carboxylic_acid) > 12(amine_secondary)
OC(=O)CN(CC(O)=O)C1C(=O)NC(=O)NC1=O,9.71,0:7:12,carboxylic_acid:carboxylic_acid:amine_secondary,"5-Amino-2,4,6-trioxo-1,3-perhydrodiazine-N,N-diacetic acid (Uramil-N,N-diacetic acid)",0:7:12,carboxylic_acid:carboxylic_acid:amine_secondary,0(carboxylic_acid) > 7(carboxylic_acid) > 12(amine_secondary)
OC(=O)CN(CC(O)=O)C1C(=O)NC(=O)NC1=O,10.33,0:7:12,carboxylic_acid:carboxylic_acid:amine_secondary,"5-Amino-2,4,6-trioxo-1,3-perhydrodiazine-N,N-diacetic acid (Uramil-N,N-diacetic acid)",0:7:12,carboxylic_acid:carboxylic_acid:amine_secondary,0(carboxylic_acid) > 7(carboxylic_acid) > 12(amine_secondary)
OC(=O)CN(CC(O)=O)C1C(=O)NC(=O)NC1=O,2.75,0:7:12,carboxylic_acid:carboxylic_acid:amine_secondary,"5-Amino-2,4,6-trioxo-1,3-perhydrodiazine-N,N-diacetic acid (Uramil-N,N-diacetic acid)",0:7:12,carboxylic_acid:carboxylic_acid:amine_secondary,0(carboxylic_acid) > 7(carboxylic_acid) > 12(amine_secondary)
OC(=O)CN(CC(O)=O)C1C(=O)NC(=O)NC1=O,2.67,0:7:12,carboxylic_acid:carboxylic_acid:amine_secondary,"5-Amino-2,4,6-trioxo-1,3-perhydrodiazine-N,N-diacetic acid (Uramil-N,N-diacetic acid)",0:7:12,carboxylic_acid:carboxylic_acid:amine_secondary,0(carboxylic_acid) > 7(carboxylic_acid) > 12(amine_secondary)
OC(=O)CN(CC(O)=O)C1C(=O)NC(=O)NC1=O,3.1,0:7:12,carboxylic_acid:carboxylic_acid:amine_secondary,"5-Amino-2,4,6-trioxo-1,3-perhydrodiazine-N,N-diacetic acid (Uramil-N,N-diacetic acid)",0:7:12,carboxylic_acid:carboxylic_acid:amine_secondary,0(carboxylic_acid) > 7(carboxylic_acid) > 12(amine_secondary)
OC(=O)CN(CC(O)=O)C1C(=O)NC(=O)NC1=O,1.9,0:7:12,carboxylic_acid:carboxylic_acid:amine_secondary,"5-Amino-2,4,6-trioxo-1,3-perhydrodiazine-N,N-diacetic acid (Uramil-N,N-diacetic acid)",0:7:12,carboxylic_acid:carboxylic_acid:amine_secondary,0(carboxylic_acid) > 7(carboxylic_acid) > 12(amine_secondary)
OC(=O)CN(CC(O)=O)C1C(=O)NC(=O)NC1=O,1.7,0:7:12,carboxylic_acid:carboxylic_acid:amine_secondary,"5-Amino-2,4,6-trioxo-1,3-perhydrodiazine-N,N-diacetic acid (Uramil-N,N-diacetic acid)",0:7:12,carboxylic_acid:carboxylic_acid:amine_secondary,0(carboxylic_acid) > 7(carboxylic_acid) > 12(amine_secondary)
CCOC(=O)NCCN(CC(O)=O)CC(O)=O,8.57,11:15,carboxylic_acid:carboxylic_acid,N-[2-(Ethoxyformylamino)ethyl]iminodiacetic acid,11:15,carboxylic_acid:carboxylic_acid,11(carboxylic_acid) > 15(carboxylic_acid)
CCOC(=O)NCCN(CC(O)=O)CC(O)=O,2.2,11:15,carboxylic_acid:carboxylic_acid,N-[2-(Ethoxyformylamino)ethyl]iminodiacetic acid,11:15,carboxylic_acid:carboxylic_acid,11(carboxylic_acid) > 15(carboxylic_acid)
OC(=O)CN(CCS)CC(O)=O,10.79,0:7:10,carboxylic_acid:thiol:carboxylic_acid,N-(2-Mercaptoethyl)iminodiacetic acid,0:10:7,carboxylic_acid:carboxylic_acid:thiol,0(carboxylic_acid) > 10(carboxylic_acid) > 7(thiol)
OC(=O)CN(CCS)CC(O)=O,8.17,0:7:10,carboxylic_acid:thiol:carboxylic_acid,N-(2-Mercaptoethyl)iminodiacetic acid,0:10:7,carboxylic_acid:carboxylic_acid:thiol,0(carboxylic_acid) > 10(carboxylic_acid) > 7(thiol)
OC(=O)CN(CCS)CC(O)=O,2.14,0:7:10,carboxylic_acid:thiol:carboxylic_acid,N-(2-Mercaptoethyl)iminodiacetic acid,0:10:7,carboxylic_acid:carboxylic_acid:thiol,0(carboxylic_acid) > 10(carboxylic_acid) > 7(thiol)
CSCCN(CC(O)=O)CC(O)=O,8.89,7:11,carboxylic_acid:carboxylic_acid,N-[2-(Methylthio)ethyl]iminodiacetic acid,7:11,carboxylic_acid:carboxylic_acid,7(carboxylic_acid) > 11(carboxylic_acid)
CSCCN(CC(O)=O)CC(O)=O,8.91,7:11,carboxylic_acid:carboxylic_acid,N-[2-(Methylthio)ethyl]iminodiacetic acid,7:11,carboxylic_acid:carboxylic_acid,7(carboxylic_acid) > 11(carboxylic_acid)
CSCCN(CC(O)=O)CC(O)=O,2.0,7:11,carboxylic_acid:carboxylic_acid,N-[2-(Methylthio)ethyl]iminodiacetic acid,7:11,carboxylic_acid:carboxylic_acid,7(carboxylic_acid) > 11(carboxylic_acid)
CSCCN(CC(O)=O)CC(O)=O,2.1,7:11,carboxylic_acid:carboxylic_acid,N-[2-(Methylthio)ethyl]iminodiacetic acid,7:11,carboxylic_acid:carboxylic_acid,7(carboxylic_acid) > 11(carboxylic_acid)
OC(=O)CN(CC(O)=O)CC(=O)c1sccc1,7.46,0:7,carboxylic_acid:carboxylic_acid,N-(2-Thienoylmethyl)iminodiacetic acid,0:7,carboxylic_acid:carboxylic_acid,0(carboxylic_acid) > 7(carboxylic_acid)
OC(=O)CN(CC(O)=O)CC(=O)c1sccc1,2.0,0:7,carboxylic_acid:carboxylic_acid,N-(2-Thienoylmethyl)iminodiacetic acid,0:7,carboxylic_acid:carboxylic_acid,0(carboxylic_acid) > 7(carboxylic_acid)
CC(=NO)C(CN(CC(O)=O)CC(O)=O)=NO,12.2,3:9:13:16,alcohol:carboxylic_acid:carboxylic_acid:alcohol,"1-[Bis(carboxymethyl)amino]butan-2,3-dione dioxime",9:13:3:16,carboxylic_acid:carboxylic_acid:alcohol:alcohol,9(carboxylic_acid) > 13(carboxylic_acid) > 3(alcohol) > 16(alcohol)
CC(=NO)C(CN(CC(O)=O)CC(O)=O)=NO,10.47,3:9:13:16,alcohol:carboxylic_acid:carboxylic_acid:alcohol,"1-[Bis(carboxymethyl)amino]butan-2,3-dione dioxime",9:13:3:16,carboxylic_acid:carboxylic_acid:alcohol:alcohol,9(carboxylic_acid) > 13(carboxylic_acid) > 3(alcohol) > 16(alcohol)
CC(=NO)C(CN(CC(O)=O)CC(O)=O)=NO,8.23,3:9:13:16,alcohol:carboxylic_acid:carboxylic_acid:alcohol,"1-[Bis(carboxymethyl)amino]butan-2,3-dione dioxime",9:13:3:16,carboxylic_acid:carboxylic_acid:alcohol:alcohol,9(carboxylic_acid) > 13(carboxylic_acid) > 3(alcohol) > 16(alcohol)
CC(=NO)C(CN(CC(O)=O)CC(O)=O)=NO,2.03,3:9:13:16,alcohol:carboxylic_acid:carboxylic_acid:alcohol,"1-[Bis(carboxymethyl)amino]butan-2,3-dione dioxime",9:13:3:16,carboxylic_acid:carboxylic_acid:alcohol:alcohol,9(carboxylic_acid) > 13(carboxylic_acid) > 3(alcohol) > 16(alcohol)
OC(=O)CSCCN(CC(O)=O)CC(O)=O,8.82,0:10:14,carboxylic_acid:carboxylic_acid:carboxylic_acid,N-[2-(Carboxymethylthio)ethyl]iminodiacetic acid,0:10:14,carboxylic_acid:carboxylic_acid:carboxylic_acid,0(carboxylic_acid) > 10(carboxylic_acid) > 14(carboxylic_acid)
OC(=O)CSCCN(CC(O)=O)CC(O)=O,3.53,0:10:14,carboxylic_acid:carboxylic_acid:carboxylic_acid,N-[2-(Carboxymethylthio)ethyl]iminodiacetic acid,0:10:14,carboxylic_acid:carboxylic_acid:carboxylic_acid,0(carboxylic_acid) > 10(carboxylic_acid) > 14(carboxylic_acid)
OC(=O)CSCCN(CC(O)=O)CC(O)=O,2.0,0:10:14,carboxylic_acid:carboxylic_acid:carboxylic_acid,N-[2-(Carboxymethylthio)ethyl]iminodiacetic acid,0:10:14,carboxylic_acid:carboxylic_acid:carboxylic_acid,0(carboxylic_acid) > 10(carboxylic_acid) > 14(carboxylic_acid)
OC(=O)CN(CCN[S](=O)(=O)c1ccccc1)CC(O)=O,7.82,0:19,carboxylic_acid:carboxylic_acid,N-[2-(Phenylsulfonylamino)ethyl]iminodiacetic acid,0:19,carboxylic_acid:carboxylic_acid,0(carboxylic_acid) > 19(carboxylic_acid)
OC(=O)CN(CCN[S](=O)(=O)c1ccccc1)CC(O)=O,2.1,0:19,carboxylic_acid:carboxylic_acid,N-[2-(Phenylsulfonylamino)ethyl]iminodiacetic acid,0:19,carboxylic_acid:carboxylic_acid,0(carboxylic_acid) > 19(carboxylic_acid)
Cc1ccc(cc1)[S](=O)(=O)NCCN(CC(O)=O)CC(O)=O,7.86,16:20,carboxylic_acid:carboxylic_acid,N-[2-(4-Methylphenylsulfonylamino)ethyl]iminodiacetic acid,16:20,carboxylic_acid:carboxylic_acid,16(carboxylic_acid) > 20(carboxylic_acid)
Cc1ccc(cc1)[S](=O)(=O)NCCN(CC(O)=O)CC(O)=O,2.15,16:20,carboxylic_acid:carboxylic_acid,N-[2-(4-Methylphenylsulfonylamino)ethyl]iminodiacetic acid,16:20,carboxylic_acid:carboxylic_acid,16(carboxylic_acid) > 20(carboxylic_acid)
OC(=O)CN(CCN[S](=O)(=O)c1ccc(CCBr)cc1)CC(O)=O,7.75,0:22,carboxylic_acid:carboxylic_acid,N-{2-[4-(2-Bromoethyl)phenylsulfonylamino]ethyl}iminodiacetic acid,0:22,carboxylic_acid:carboxylic_acid,0(carboxylic_acid) > 22(carboxylic_acid)
OC(=O)CN(CCN[S](=O)(=O)c1ccc(CCBr)cc1)CC(O)=O,2.15,0:22,carboxylic_acid:carboxylic_acid,N-{2-[4-(2-Bromoethyl)phenylsulfonylamino]ethyl}iminodiacetic acid,0:22,carboxylic_acid:carboxylic_acid,0(carboxylic_acid) > 22(carboxylic_acid)
CC(=O)NCCN(CC(O)=O)CC(O)=O,8.17,9:13,carboxylic_acid:carboxylic_acid,N-[2-(Acetamido)ethyl]iminodiacetic acid,9:13,carboxylic_acid:carboxylic_acid,9(carboxylic_acid) > 13(carboxylic_acid)
CC(=O)NCCN(CC(O)=O)CC(O)=O,1.9,9:13,carboxylic_acid:carboxylic_acid,N-[2-(Acetamido)ethyl]iminodiacetic acid,9:13,carboxylic_acid:carboxylic_acid,9(carboxylic_acid) > 13(carboxylic_acid)
OCCN(CCN(CC(O)=O)CC(O)=O)CC(O)=O,9.7,0:9:13:17,alcohol:carboxylic_acid:carboxylic_acid:carboxylic_acid,N-(2-Hydroxyethyl)ethylenedinitrilotriacetic acid (HEDTA),9:13:17:0,carboxylic_acid:carboxylic_acid:carboxylic_acid:alcohol,9(carboxylic_acid) > 13(carboxylic_acid) > 17(carboxylic_acid) > 0(alcohol)
OCCN(CCN(CC(O)=O)CC(O)=O)CC(O)=O,9.87,0:9:13:17,alcohol:carboxylic_acid:carboxylic_acid:carboxylic_acid,N-(2-Hydroxyethyl)ethylenedinitrilotriacetic acid (HEDTA),9:13:17:0,carboxylic_acid:carboxylic_acid:carboxylic_acid:alcohol,9(carboxylic_acid) > 13(carboxylic_acid) > 17(carboxylic_acid) > 0(alcohol)
OCCN(CCN(CC(O)=O)CC(O)=O)CC(O)=O,9.79,0:9:13:17,alcohol:carboxylic_acid:carboxylic_acid:carboxylic_acid,N-(2-Hydroxyethyl)ethylenedinitrilotriacetic acid (HEDTA),9:13:17:0,carboxylic_acid:carboxylic_acid:carboxylic_acid:alcohol,9(carboxylic_acid) > 13(carboxylic_acid) > 17(carboxylic_acid) > 0(alcohol)
OCCN(CCN(CC(O)=O)CC(O)=O)CC(O)=O,9.2,0:9:13:17,alcohol:carboxylic_acid:carboxylic_acid:carboxylic_acid,N-(2-Hydroxyethyl)ethylenedinitrilotriacetic acid (HEDTA),9:13:17:0,carboxylic_acid:carboxylic_acid:carboxylic_acid:alcohol,9(carboxylic_acid) > 13(carboxylic_acid) > 17(carboxylic_acid) > 0(alcohol)
OCCN(CCN(CC(O)=O)CC(O)=O)CC(O)=O,9.73,0:9:13:17,alcohol:carboxylic_acid:carboxylic_acid:carboxylic_acid,N-(2-Hydroxyethyl)ethylenedinitrilotriacetic acid (HEDTA),9:13:17:0,carboxylic_acid:carboxylic_acid:carboxylic_acid:alcohol,9(carboxylic_acid) > 13(carboxylic_acid) > 17(carboxylic_acid) > 0(alcohol)
OCCN(CCN(CC(O)=O)CC(O)=O)CC(O)=O,5.38,0:9:13:17,alcohol:carboxylic_acid:carboxylic_acid:carboxylic_acid,N-(2-Hydroxyethyl)ethylenedinitrilotriacetic acid (HEDTA),9:13:17:0,carboxylic_acid:carboxylic_acid:carboxylic_acid:alcohol,9(carboxylic_acid) > 13(carboxylic_acid) > 17(carboxylic_acid) > 0(alcohol)
OCCN(CCN(CC(O)=O)CC(O)=O)CC(O)=O,5.4,0:9:13:17,alcohol:carboxylic_acid:carboxylic_acid:carboxylic_acid,N-(2-Hydroxyethyl)ethylenedinitrilotriacetic acid (HEDTA),9:13:17:0,carboxylic_acid:carboxylic_acid:carboxylic_acid:alcohol,9(carboxylic_acid) > 13(carboxylic_acid) > 17(carboxylic_acid) > 0(alcohol)
OCCN(CCN(CC(O)=O)CC(O)=O)CC(O)=O,5.48,0:9:13:17,alcohol:carboxylic_acid:carboxylic_acid:carboxylic_acid,N-(2-Hydroxyethyl)ethylenedinitrilotriacetic acid (HEDTA),9:13:17:0,carboxylic_acid:carboxylic_acid:carboxylic_acid:alcohol,9(carboxylic_acid) > 13(carboxylic_acid) > 17(carboxylic_acid) > 0(alcohol)
OCCN(CCN(CC(O)=O)CC(O)=O)CC(O)=O,2.62,0:9:13:17,alcohol:carboxylic_acid:carboxylic_acid:carboxylic_acid,N-(2-Hydroxyethyl)ethylenedinitrilotriacetic acid (HEDTA),9:13:17:0,carboxylic_acid:carboxylic_acid:carboxylic_acid:alcohol,9(carboxylic_acid) > 13(carboxylic_acid) > 17(carboxylic_acid) > 0(alcohol)
OCCN(CCN(CC(O)=O)CC(O)=O)CC(O)=O,2.71,0:9:13:17,alcohol:carboxylic_acid:carboxylic_acid:carboxylic_acid,N-(2-Hydroxyethyl)ethylenedinitrilotriacetic acid (HEDTA),9:13:17:0,carboxylic_acid:carboxylic_acid:carboxylic_acid:alcohol,9(carboxylic_acid) > 13(carboxylic_acid) > 17(carboxylic_acid) > 0(alcohol)
OCCN(CCN(CC(O)=O)CC(O)=O)CC(O)=O,2.33,0:9:13:17,alcohol:carboxylic_acid:carboxylic_acid:carboxylic_acid,N-(2-Hydroxyethyl)ethylenedinitrilotriacetic acid (HEDTA),9:13:17:0,carboxylic_acid:carboxylic_acid:carboxylic_acid:alcohol,9(carboxylic_acid) > 13(carboxylic_acid) > 17(carboxylic_acid) > 0(alcohol)
OCCN(CCN(CC(O)=O)CC(O)=O)CC(O)=O,1.6,0:9:13:17,alcohol:carboxylic_acid:carboxylic_acid:carboxylic_acid,N-(2-Hydroxyethyl)ethylenedinitrilotriacetic acid (HEDTA),9:13:17:0,carboxylic_acid:carboxylic_acid:carboxylic_acid:alcohol,9(carboxylic_acid) > 13(carboxylic_acid) > 17(carboxylic_acid) > 0(alcohol)
OC(=O)CN(CCN(CC(O)=O)CC(O)=O)CC(O)=O,9.52,7:11,tertiary_amine:tertiary_amine,Ethylenedinitrilotetraacetic acid (EDTA),7:11,tertiary_amine:tertiary_amine,7(tertiary_amine) > 11(tertiary_amine)
OC(=O)CN(CCN(CC(O)=O)CC(O)=O)CC(O)=O,10.19,7:11,tertiary_amine:tertiary_amine,Ethylenedinitrilotetraacetic acid (EDTA),7:11,tertiary_amine:tertiary_amine,7(tertiary_amine) > 11(tertiary_amine)
OC(=O)CN(CCN(CC(O)=O)CC(O)=O)CC(O)=O,10.37,7:11,tertiary_amine:tertiary_amine,Ethylenedinitrilotetraacetic acid (EDTA),7:11,tertiary_amine:tertiary_amine,7(tertiary_amine) > 11(tertiary_amine)
OC(=O)CN(CCN(CC(O)=O)CC(O)=O)CC(O)=O,9.38,7:11,tertiary_amine:tertiary_amine,Ethylenedinitrilotetraacetic acid (EDTA),7:11,tertiary_amine:tertiary_amine,7(tertiary_amine) > 11(tertiary_amine)
OC(=O)CN(CCN(CC(O)=O)CC(O)=O)CC(O)=O,10.02,7:11,tertiary_amine:tertiary_amine,Ethylenedinitrilotetraacetic acid (EDTA),7:11,tertiary_amine:tertiary_amine,7(tertiary_amine) > 11(tertiary_amine)
OC(=O)CN(CCN(CC(O)=O)CC(O)=O)CC(O)=O,10.21,7:11,tertiary_amine:tertiary_amine,Ethylenedinitrilotetraacetic acid (EDTA),7:11,tertiary_amine:tertiary_amine,7(tertiary_amine) > 11(tertiary_amine)
OC(=O)CN(CCN(CC(O)=O)CC(O)=O)CC(O)=O,8.86,7:11,tertiary_amine:tertiary_amine,Ethylenedinitrilotetraacetic acid (EDTA),7:11,tertiary_amine:tertiary_amine,7(tertiary_amine) > 11(tertiary_amine)
OC(=O)CN(CCN(CC(O)=O)CC(O)=O)CC(O)=O,9.62,7:11,tertiary_amine:tertiary_amine,Ethylenedinitrilotetraacetic acid (EDTA),7:11,tertiary_amine:tertiary_amine,7(tertiary_amine) > 11(tertiary_amine)
OC(=O)CN(CCN(CC(O)=O)CC(O)=O)CC(O)=O,10.23,7:11,tertiary_amine:tertiary_amine,Ethylenedinitrilotetraacetic acid (EDTA),7:11,tertiary_amine:tertiary_amine,7(tertiary_amine) > 11(tertiary_amine)
OC(=O)CN(CCN(CC(O)=O)CC(O)=O)CC(O)=O,8.73,7:11,tertiary_amine:tertiary_amine,Ethylenedinitrilotetraacetic acid (EDTA),7:11,tertiary_amine:tertiary_amine,7(tertiary_amine) > 11(tertiary_amine)