SMILES,pKa,Dissociable_Atoms,Functional_Group,Name
Oc1ccc2cc(cc(c2c1)[S](O)(=O)=O)[S](O)(=O)=O,8.59,0,phenol,"2-Naphthol-6,8-disulfonic acid"
Oc1ccc2cc(cc(c2c1)[S](O)(=O)=O)[S](O)(=O)=O,8.37,0,phenol,"2-Naphthol-6,8-disulfonic acid"
Oc1ccc2cc(cc(c2c1)[S](O)(=O)=O)[S](O)(=O)=O,8.33,0,phenol,"2-Naphthol-6,8-disulfonic acid"
Oc1ccc2cc(cc(c2c1)[S](O)(=O)=O)[S](O)(=O)=O,9.15,0,phenol,"2-Naphthol-6,8-disulfonic acid"
Oc1ccc2ccccc2c1[N+]([O-])=O,5.75,15,n_oxide,1-Nitro-2-naphthol
Oc1ccc2ccccc2c1[N+]([O-])=O,5.68,15,n_oxide,1-Nitro-2-naphthol
Oc1ccc2ccccc2c1[N+]([O-])=O,5.66,15,n_oxide,1-Nitro-2-naphthol
Oc1ccc2ccccc2c1[N+]([O-])=O,5.93,15,n_oxide,1-Nitro-2-naphthol
Oc1ccc2ccccc2c1N=O,7.65,0,phenol,1-Nitroso-2-naphthol
Oc1ccc2ccccc2c1N=O,7.59,0,phenol,1-Nitroso-2-naphthol
Oc1ccc2ccccc2c1N=O,7.62,0,phenol,1-Nitroso-2-naphthol
Oc1ccc2ccccc2c1N=O,7.87,0,phenol,1-Nitroso-2-naphthol
FC(F)(F)C(=O)CC(=O)c1ccc2ccccc2c1,6.28,5,carbonyl,"1-(2-Naphthyl)-4,4,4-trifluorobutane-1,3-dione (2-Naphthoyltrifluoroacetone)"
O[S](=O)(=O)C1=CC(=O)C(=O)c2ccccc12,10.51,0,alcohol,"1,2-Naphthoquinone-4-sulfonic acid"
CC(=O)CC(=O)c1occc1,8.64,1,carbonyl,"4-(2-Oxolyl)butane-2,4-dione (Furanoylacetone)"
FC(F)(F)C(=O)CC(=O)c1occc1,6.22,5,carbonyl,"4-(2-Oxolyl)-1,1,1-trifluorobutane-2,4-dione (Furanoyltrifluoroacetone)"
FC(F)(F)C(=O)CC(=O)c1occc1,6.18,5,carbonyl,"4-(2-Oxolyl)-1,1,1-trifluorobutane-2,4-dione (Furanoyltrifluoroacetone)"
O=C(CC(=O)c1occc1)c2occc2,8.15,1,carbonyl,"1,4-Di(2-oxolyl)propane-1,3-dione (Difuranoylmethane)"
CC1(C)CC(=O)CC(=O)C1,5.23,5,carbonyl,"5,5-Dimethylcyclohexane-1,3-dione (Dimedone)"
OC1=C(O)C(=O)C1=O,3.1,3:0,phenol:phenol,Dihydroxycyclobutenedione (Squaric acid)
OC1=C(O)C(=O)C1=O,2.74,3:0,phenol:phenol,Dihydroxycyclobutenedione (Squaric acid)
OC1=C(O)C(=O)C1=O,2.8,3:0,phenol:phenol,Dihydroxycyclobutenedione (Squaric acid)
OC1=C(O)C(=O)C1=O,3.19,3:0,phenol:phenol,Dihydroxycyclobutenedione (Squaric acid)
OC1=C(O)C(=O)C1=O,3.48,3:0,phenol:phenol,Dihydroxycyclobutenedione (Squaric acid)
OC1=C(O)C(=O)C1=O,0.4,3:0,phenol:phenol,Dihydroxycyclobutenedione (Squaric acid)
OC1=C(O)C(=O)C1=O,1.0,3:0,phenol:phenol,Dihydroxycyclobutenedione (Squaric acid)
OC1=C(O)C(=O)C1=O,0.55,3:0,phenol:phenol,Dihydroxycyclobutenedione (Squaric acid)
OC1=C(O)C(=O)C(=O)C1=O,1.8,3:0,phenol:phenol,Dihydroxycyclopentenetrione (Croconic acid)
OC1=C(O)C(=O)C(=O)C1=O,1.51,3:0,phenol:phenol,Dihydroxycyclopentenetrione (Croconic acid)
OC1=C(O)C(=O)C(=O)C1=O,2.24,3:0,phenol:phenol,Dihydroxycyclopentenetrione (Croconic acid)
OC1=C(O)C(=O)C(=O)C1=O,0.6,3:0,phenol:phenol,Dihydroxycyclopentenetrione (Croconic acid)
OC1=C(O)C(=O)C(=O)C1=O,0.3,3:0,phenol:phenol,Dihydroxycyclopentenetrione (Croconic acid)
OC1=C(O)C(=O)C(=O)C1=O,0.8,3:0,phenol:phenol,Dihydroxycyclopentenetrione (Croconic acid)
OC1=C(O)C(=O)C(=O)C(=O)C1=O,3.58,3:0,phenol:phenol,"5,6-Dihydroxycyclohexene-1,2,3,4-tetrone (Rhodizonic acid)"
OC1=C(O)C(=O)C(=O)C(=O)C1=O,3.45,3:0,phenol:phenol,"5,6-Dihydroxycyclohexene-1,2,3,4-tetrone (Rhodizonic acid)"
OC1=CC=CC=CC1=O,6.7,0:8,phenol:carbonyl,"1-Hydroxycyclohepta-3,5,7-trien-2-one (Tropolone)"
OC1=CC=CC=CC1=O,6.65,0:8,phenol:carbonyl,"1-Hydroxycyclohepta-3,5,7-trien-2-one (Tropolone)"
OC1=CC=CC=CC1=O,6.78,0:8,phenol:carbonyl,"1-Hydroxycyclohepta-3,5,7-trien-2-one (Tropolone)"
OC1=CC=CC=CC1=O,6.42,0:8,phenol:carbonyl,"1-Hydroxycyclohepta-3,5,7-trien-2-one (Tropolone)"
OC1=CC=CC=CC1=O,6.89,0:8,phenol:carbonyl,"1-Hydroxycyclohepta-3,5,7-trien-2-one (Tropolone)"
OC1=CC=CC=CC1=O,0.5,0:8,phenol:carbonyl,"1-Hydroxycyclohepta-3,5,7-trien-2-one (Tropolone)"
OC1=CC=CC=CC1=O,0.3,0:8,phenol:carbonyl,"1-Hydroxycyclohepta-3,5,7-trien-2-one (Tropolone)"
OC1=CC=CC=CC1=O,0.0,0:8,phenol:carbonyl,"1-Hydroxycyclohepta-3,5,7-trien-2-one (Tropolone)"
CC(C)C1=CC(=O)C(=CC=C1)O,7.02,7:9,carbonyl:phenol,"1-Hydroxy-4-(1-methylethyl)cyclohepta-3,5,7-trien-2-one (beta-Isopropyltropolone)"
CC(C)C1=CC(=O)C(=CC=C1)O,6.72,7:9,carbonyl:phenol,"1-Hydroxy-4-(1-methylethyl)cyclohepta-3,5,7-trien-2-one (beta-Isopropyltropolone)"
CC(C)C1=CC(=O)C(=CC=C1)O,7.29,7:9,carbonyl:phenol,"1-Hydroxy-4-(1-methylethyl)cyclohepta-3,5,7-trien-2-one (beta-Isopropyltropolone)"
CC(C)C1=CC(=O)C(=CC=C1)O,1.7,7:9,carbonyl:phenol,"1-Hydroxy-4-(1-methylethyl)cyclohepta-3,5,7-trien-2-one (beta-Isopropyltropolone)"
OC1=CC=C(C=CC1=O)C#N,3.72,19,nitrile,"5-Cyano-1-hydroxycyclohepta-3,5,7-trien-2-one (5-Cyanotropolone)"
OC1=C(Br)C=CC=CC1=O,5.14,0,phenol,"3-Bromo-1-hydroxycyclohepta-3,5,7-trien-2-one (3-Bromotropolone)"
NC1=CC(=O)C(=CC=C1)O,7.47,9,phenol,"4-Amino-1-hydroxycyclohepta-3,5,7-trien-2-one (4-Aminotropolone)"
CC1=CC(=CC(=O)O1)O,4.69,8,phenol,4-Hydroxy-6-methyl-2-pyrone
CC1=CC(=CC(=O)O1)O,4.78,8,phenol,4-Hydroxy-6-methyl-2-pyrone
CC1=CC(=CC(=O)O1)O,4.88,8,phenol,4-Hydroxy-6-methyl-2-pyrone
OC1=CC(=O)Oc2ccccc12,4.06,0,phenol,4-Hydroxy-1-benzopyran-2-one (4-Hydroxycoumarin)
OC1=CC(=O)Oc2ccccc12,4.02,0,phenol,4-Hydroxy-1-benzopyran-2-one (4-Hydroxycoumarin)
OC1=CC(=O)Oc2ccccc12,4.09,0,phenol,4-Hydroxy-1-benzopyran-2-one (4-Hydroxycoumarin)
OC1=CC(=O)Oc2ccccc12,4.27,0,phenol,4-Hydroxy-1-benzopyran-2-one (4-Hydroxycoumarin)
Oc1ccc2C=CC(=O)Oc2c1,7.61,0,phenol,7-Hydroxy-1-benzopyran-2-one (7-Hydroxycoumarin)
Oc1ccc2C=CC(=O)Oc2c1,7.59,0,phenol,7-Hydroxy-1-benzopyran-2-one (7-Hydroxycoumarin)
Oc1ccc2C=CC(=O)Oc2c1,7.63,0,phenol,7-Hydroxy-1-benzopyran-2-one (7-Hydroxycoumarin)
Oc1ccc2C=CC(=O)Oc2c1,7.79,0,phenol,7-Hydroxy-1-benzopyran-2-one (7-Hydroxycoumarin)
OC1=COC=CC1=O,7.69,0,phenol,3-Hydroxy-4-pyrone (Pyromeconic acid)
OC1=COC=CC1=O,7.99,0,phenol,3-Hydroxy-4-pyrone (Pyromeconic acid)
CC1=C(O)C(=O)C=CO1,8.53,3,phenol,3-Hydroxy-2-methyl-4-pyrone (Maltol)
CC1=C(O)C(=O)C=CO1,8.41,3,phenol,3-Hydroxy-2-methyl-4-pyrone (Maltol)
CC1=C(O)C(=O)C=CO1,8.45,3,phenol,3-Hydroxy-2-methyl-4-pyrone (Maltol)
CC1=C(O)C(=O)C=CO1,8.68,3,phenol,3-Hydroxy-2-methyl-4-pyrone (Maltol)
CCC1=C(O)C(=O)C=CO1,8.55,4,phenol,2-Ethyl-3-hydroxy-4-pyrone (Veltol plus)
CCC1=C(O)C(=O)C=CO1,8.46,4,phenol,2-Ethyl-3-hydroxy-4-pyrone (Veltol plus)
CCC1=C(O)C(=O)C=CO1,8.49,4,phenol,2-Ethyl-3-hydroxy-4-pyrone (Veltol plus)
CCC1=C(O)C(=O)C=CO1,8.73,4,phenol,2-Ethyl-3-hydroxy-4-pyrone (Veltol plus)
CC1=CC(=O)C(=CO1)O,8.02,8,phenol,5-Hydroxy-2-methyl-4-pyrone (Allomaltol)
CC1=CC(=O)C(=CO1)O,7.96,8,phenol,5-Hydroxy-2-methyl-4-pyrone (Allomaltol)
CC1=CC(=O)C(=CO1)O,7.99,8,phenol,5-Hydroxy-2-methyl-4-pyrone (Allomaltol)
CC1=CC(=O)C(=CO1)O,8.26,8,phenol,5-Hydroxy-2-methyl-4-pyrone (Allomaltol)
OC(=O)C1=CC(=O)C(=CO1)O,7.46,10:0,phenol:carboxylic_acid,2-Carboxy-3-hydroxy-4-pyrone (Comenic acid)
OC(=O)C1=CC(=O)C(=CO1)O,7.31,10:0,phenol:carboxylic_acid,2-Carboxy-3-hydroxy-4-pyrone (Comenic acid)
OC(=O)C1=CC(=O)C(=CO1)O,7.32,10:0,phenol:carboxylic_acid,2-Carboxy-3-hydroxy-4-pyrone (Comenic acid)
OC(=O)C1=CC(=O)C(=CO1)O,7.8,10:0,phenol:carboxylic_acid,2-Carboxy-3-hydroxy-4-pyrone (Comenic acid)
OC(=O)C1=CC(=O)C(=CO1)O,1.4,10:0,phenol:carboxylic_acid,2-Carboxy-3-hydroxy-4-pyrone (Comenic acid)
OC(O)=C1OC(=CC(=O)C1=O)C(O)=O,9.35,12,carboxylic_acid,"2,6-Dicarboxy-5-hydroxy-4-pyrone (Meconic acid)"
OC(O)=C1OC(=CC(=O)C1=O)C(O)=O,10.3,12,carboxylic_acid,"2,6-Dicarboxy-5-hydroxy-4-pyrone (Meconic acid)"
OCC1=CC(=O)C(=CO1)O,7.66,9,phenol,5-Hydroxy-2-hydroxymethyl-4-pyrone (Kojic acid)
OCC1=CC(=O)C(=CO1)O,7.61,9,phenol,5-Hydroxy-2-hydroxymethyl-4-pyrone (Kojic acid)
OCC1=CC(=O)C(=CO1)O,7.89,9,phenol,5-Hydroxy-2-hydroxymethyl-4-pyrone (Kojic acid)
OCC1=CC(=O)C(=CO1)O,7.92,9,phenol,5-Hydroxy-2-hydroxymethyl-4-pyrone (Kojic acid)
OCC1=CC(=O)C(=C(I)O1)O,6.52,10,phenol,5-Hydroxy-2-hydroxymethyl-6-iodo-4-pyrone (6-Iodokojic acid)
OCC1=CC(=O)C(=C(I)O1)O,6.43,10,phenol,5-Hydroxy-2-hydroxymethyl-6-iodo-4-pyrone (6-Iodokojic acid)
OCC1=CC(=O)C(=C(I)O1)O,6.44,10,phenol,5-Hydroxy-2-hydroxymethyl-6-iodo-4-pyrone (6-Iodokojic acid)
OCC1=CC(=O)C(=C(I)O1)O,6.73,10,phenol,5-Hydroxy-2-hydroxymethyl-6-iodo-4-pyrone (6-Iodokojic acid)
OCC1=CC(=O)C(=C(CN2CCCCC2)O1)O,9.2,0:16,alcohol:phenol,3-Hydroxy-6-hydroxymethyl-2-(1-piperidinylmethyl)-4-pyrone
OCC1=CC(=O)C(=C(CN2CCCCC2)O1)O,9.18,0:16,alcohol:phenol,3-Hydroxy-6-hydroxymethyl-2-(1-piperidinylmethyl)-4-pyrone
OCC1=CC(=O)C(=C(CN2CCCCC2)O1)O,9.23,0:16,alcohol:phenol,3-Hydroxy-6-hydroxymethyl-2-(1-piperidinylmethyl)-4-pyrone
OCC1=CC(=O)C(=C(CN2CCCCC2)O1)O,9.36,0:16,alcohol:phenol,3-Hydroxy-6-hydroxymethyl-2-(1-piperidinylmethyl)-4-pyrone
OCC1=CC(=O)C(=C(CN2CCCCC2)O1)O,6.36,0:16,alcohol:phenol,3-Hydroxy-6-hydroxymethyl-2-(1-piperidinylmethyl)-4-pyrone
OCC1=CC(=O)C(=C(CN2CCCCC2)O1)O,6.44,0:16,alcohol:phenol,3-Hydroxy-6-hydroxymethyl-2-(1-piperidinylmethyl)-4-pyrone
OCC1=CC(=O)C(=C(CN2CCCCC2)O1)O,6.54,0:16,alcohol:phenol,3-Hydroxy-6-hydroxymethyl-2-(1-piperidinylmethyl)-4-pyrone
OCC1=CC(=O)C(=C(CN2CCCCC2)O1)O,6.34,0:16,alcohol:phenol,3-Hydroxy-6-hydroxymethyl-2-(1-piperidinylmethyl)-4-pyrone
OCC1=CC(=O)C(=C(CN2CCOCC2)O1)O,7.86,0:16,alcohol:phenol,3-Hydroxy-6-hydroxymethyl-2-(4-morpholinylmethyl)-4-pyrone
OCC1=CC(=O)C(=C(CN2CCOCC2)O1)O,7.79,0:16,alcohol:phenol,3-Hydroxy-6-hydroxymethyl-2-(4-morpholinylmethyl)-4-pyrone
OCC1=CC(=O)C(=C(CN2CCOCC2)O1)O,7.82,0:16,alcohol:phenol,3-Hydroxy-6-hydroxymethyl-2-(4-morpholinylmethyl)-4-pyrone
OCC1=CC(=O)C(=C(CN2CCOCC2)O1)O,8.06,0:16,alcohol:phenol,3-Hydroxy-6-hydroxymethyl-2-(4-morpholinylmethyl)-4-pyrone
OCC1=CC(=O)C(=C(CN2CCOCC2)O1)O,5.03,0:16,alcohol:phenol,3-Hydroxy-6-hydroxymethyl-2-(4-morpholinylmethyl)-4-pyrone
OCC1=CC(=O)C(=C(CN2CCOCC2)O1)O,5.18,0:16,alcohol:phenol,3-Hydroxy-6-hydroxymethyl-2-(4-morpholinylmethyl)-4-pyrone
OCC1=CC(=O)C(=C(CN2CCOCC2)O1)O,5.37,0:16,alcohol:phenol,3-Hydroxy-6-hydroxymethyl-2-(4-morpholinylmethyl)-4-pyrone
OCC1=CC(=O)C(=C(CN2CCOCC2)O1)O,5.0,0:16,alcohol:phenol,3-Hydroxy-6-hydroxymethyl-2-(4-morpholinylmethyl)-4-pyrone
COC(=O)C1=C(O)C(=O)C(=C1C(=O)OC)C(=O)OC,7.84,6,alcohol,"4-Hydroxy-5-oxocyclopentadiene-1,2,3-tricarboxylic acid trimethylester"
OC1=CC(=O)C(=CC1=O)O,5.22,0:9,alcohol:alcohol,"2,5-Dihydroxy-1,4-benzoquinone"
OC1=CC(=O)C(=CC1=O)O,2.81,0:9,alcohol:alcohol,"2,5-Dihydroxy-1,4-benzoquinone"
OC1=C(C(=O)C(=C(C1=O)[N+]([O-])=O)O)[N+]([O-])=O,0.5,21,n_oxide,"3,6-Dinitro-2,5-dihydroxy-1,4-benzoquinone"
OC1=C(C(=O)C(=C(C1=O)[S](O)(=O)=O)O)[S](O)(=O)=O,3.81,0:10,alcohol:alcohol,"2,5-Dihydroxy-1,4-benzoquinone-3,6-disulfonic acid"
OC1=C(C(=O)C(=C(C1=O)[S](O)(=O)=O)O)[S](O)(=O)=O,0.8,0:10,alcohol:alcohol,"2,5-Dihydroxy-1,4-benzoquinone-3,6-disulfonic acid"
OC1=C(Oc2ccccc2)C(=O)C(=C(Oc3ccccc3)C1=O)O,3.0,0:23,alcohol:alcohol,"3,6-Diphenoxy-2,5-dihydroxy-1,4-benzoquinone"
OC1=C(Oc2ccccc2)C(=O)C(=C(Oc3ccccc3)C1=O)O,2.0,0:23,alcohol:alcohol,"3,6-Diphenoxy-2,5-dihydroxy-1,4-benzoquinone"
OC1=C(O)C(=O)C(=C(O)C1=O)O,6.65,0:3,alcohol:alcohol,"Tetrahydroxy-1,4-benzoquinone (Tetrahydroxyquinone)"
OC1=C(O)C(=O)C(=C(O)C1=O)O,4.55,0:3,alcohol:alcohol,"Tetrahydroxy-1,4-benzoquinone (Tetrahydroxyquinone)"
OC1=CC(=O)C(=O)c2ccccc12,4.0,0,alcohol,"2-Hydroxy-1,4-napthoquinone (Lawsone)"
OC(C(F)(F)F)C(F)(F)F,9.42,0,alcohol,"1,1,1,3,3,3-Hexafluoropropane-2-ol"
OC(O)(C(F)(F)F)C(F)(F)F,6.65,0,alcohol,"1,1,1,3,3,3-Hexafluoropropane-2,2-diol"
CCS,10.61,2,thiol,Ethanethiol
CC(C)S,10.86,3,thiol,Propane-2-thiol
CC(C)(C)S,11.22,4,thiol,2-Methylpropane-2-thiol
C[N+](C)(C)CCS,7.88,6,thiol,2-Mercaptoethyltrimethylammonium (perchlorate) (Thiocholine)
Sc1ccccc1,6.46,0,thiol,Benzenethiol (Thiophenol)
Sc1ccccc1,6.43,0,thiol,Benzenethiol (Thiophenol)
Sc1ccccc1,6.615,0,thiol,Benzenethiol (Thiophenol)
Cc1ccccc1S,6.995,7,thiol,2-Methylbenzenethiol (o-Methylthiophenol)
Cc1cccc(S)c1,6.66,6,thiol,3-Methylbenzenethiol (m-Methylthiophenol)
Cc1ccc(S)cc1,6.82,5,thiol,4-Methylbenzenethiol (p-Methylthiophenol)
Cc1cccc(C)c1S,7.377,8,thiol,"2,6-Dimethylbenzenethiol"
Fc1c(F)c(F)c(S)c(F)c1F,2.68,7,thiol,Pentafluorobenzenethiol
Sc1ccccc1Br,5.659,0,thiol,2-Bromobenzenethiol (o-Bromothiophenol)
Sc1ccc(Br)cc1,6.02,0,thiol,4-Bromobenzenethiol (p-Bromothiophenol)
[O-][N+](=O)c1ccccc1S,5.453,9,thiol,2-Nitrobenzenethiol (o-Nitrothiophenol)
[O-][N+](=O)c1cccc(S)c1,5.241,8,thiol,3-Nitrobenzenethiol (m-Nitrothiophenol)
[O-][N+](=O)c1ccc(S)cc1,4.5,7,thiol,4-Nitrobenzenethiol (p-Nitrothiophenol)
[O-][N+](=O)c1ccc(S)cc1,4.715,7,thiol,4-Nitrobenzenethiol (p-Nitrothiophenol)
COc1ccccc1S,6.89,8,thiol,2-Methoxybenzenethiol (o-Methoxythiophenol)
COc1cccc(S)c1,6.385,7,thiol,3-Methoxybenzenethiol (m-Methoxythiophenol)
COc1ccc(S)cc1,6.775,6,thiol,4-Methoxybenzenethiol (p-Methoxythiophenol)
CCOc1ccccc1S,7.063,9,thiol,2-Ethoxybenzenethiol (o-Ethoxythiophenol)
CSc1ccccc1S,5.754,8,thiol,2-Methylthiobenzenethiol (o-Methylthiothiophenol)
CC(=O)c1ccc(S)cc1,5.33,7,thiol,4-Acetylbenzenethiol (p-Acetylthiophenol)
Sc1cccc2ccccc12,6.343,0,thiol,Naphthalene-1-thiol
Sc1ccc2ccccc2c1,6.472,0,thiol,Naphthalene-2-thiol
OCCS,9.4,0,alcohol,2-Mercaptoethanol
OCCS,9.33,0,alcohol,2-Mercaptoethanol
OCCS,9.72,0,alcohol,2-Mercaptoethanol
OCC(O)CS,9.3,0,alcohol,"3-Mercaptopropane-1,2-diol (Thiovanol)"
COC(=O)CS,7.99,5,thiol,Mercaptoacetic acid methyl ester
CC(=O)NCCS,9.92,3,amine_secondary,N-Acetyl-2-aminoethanethiol
SCCS,10.43,0:3,thiol:thiol,"Ethane-1,2-dithiol"
SCCS,8.85,0:3,thiol:thiol,"Ethane-1,2-dithiol"
SCCS,9.0,0:3,thiol:thiol,"Ethane-1,2-dithiol"
Cc1ccc(S)c(S)c1,11.0,5:7,thiol:thiol,"4-Methylbenzene-1,2-dithiol (Toluene-3,4-dithiol)"
Cc1ccc(S)c(S)c1,5.34,5:7,thiol:thiol,"4-Methylbenzene-1,2-dithiol (Toluene-3,4-dithiol)"
OCC(S)CS,10.65,0:3,alcohol:thiol,"2,3-Dimercaptopropanol (BAL)"
OCC(S)CS,10.7,0:3,alcohol:thiol,"2,3-Dimercaptopropanol (BAL)"
OCC(S)CS,10.61,0:3,alcohol:thiol,"2,3-Dimercaptopropanol (BAL)"
OCC(S)CS,8.63,0:3,alcohol:thiol,"2,3-Dimercaptopropanol (BAL)"
OCC(S)CS,8.68,0:3,alcohol:thiol,"2,3-Dimercaptopropanol (BAL)"
OCC(S)CS,8.58,0:3,alcohol:thiol,"2,3-Dimercaptopropanol (BAL)"
OCC(S)CS,8.42,0:3,alcohol:thiol,"2,3-Dimercaptopropanol (BAL)"
O[C@H](CS)[C@H](O)CS,10.06,0:5,alcohol:alcohol,"DL-threo-1,4-Dimercaptobutane-2,3-diol (Dithiothreitol)"
O[C@H](CS)[C@H](O)CS,9.81,0:5,alcohol:alcohol,"DL-threo-1,4-Dimercaptobutane-2,3-diol (Dithiothreitol)"
O[C@H](CS)[C@H](O)CS,9.94,0:5,alcohol:alcohol,"DL-threo-1,4-Dimercaptobutane-2,3-diol (Dithiothreitol)"
O[C@H](CS)[C@H](O)CS,9.05,0:5,alcohol:alcohol,"DL-threo-1,4-Dimercaptobutane-2,3-diol (Dithiothreitol)"
O[C@H](CS)[C@H](O)CS,8.86,0:5,alcohol:alcohol,"DL-threo-1,4-Dimercaptobutane-2,3-diol (Dithiothreitol)"
O[C@H](CS)[C@H](O)CS,9.14,0:5,alcohol:alcohol,"DL-threo-1,4-Dimercaptobutane-2,3-diol (Dithiothreitol)"
O[C@@H](CS)[C@H](O)CS,9.99,0:5,alcohol:alcohol,"erythro-1,4-Dimercaptobutane-2,3-diol (Dithioerythritol)"
O[C@@H](CS)[C@H](O)CS,9.94,0:5,alcohol:alcohol,"erythro-1,4-Dimercaptobutane-2,3-diol (Dithioerythritol)"
O[C@@H](CS)[C@H](O)CS,9.21,0:5,alcohol:alcohol,"erythro-1,4-Dimercaptobutane-2,3-diol (Dithioerythritol)"
O[C@@H](CS)[C@H](O)CS,9.14,0:5,alcohol:alcohol,"erythro-1,4-Dimercaptobutane-2,3-diol (Dithioerythritol)"
CC(O)=S,3.2,2,alcohol,Thioacetic acid
CCN(CC)C(S)=S,3.31,2,tertiary_amine,"N,N-Diethyldithiocarbamic acid"
CCN(CC)C(S)=S,3.22,2,tertiary_amine,"N,N-Diethyldithiocarbamic acid"
CCN(CC)C(S)=S,3.16,2,tertiary_amine,"N,N-Diethyldithiocarbamic acid"
CCN(CC)C(S)=S,3.42,2,tertiary_amine,"N,N-Diethyldithiocarbamic acid"
C[N+]([O-])=O,10.2,1,n_oxide,Nitromethane
CC[N+]([O-])=O,8.57,2,n_oxide,Nitroethane
CCC[N+]([O-])=O,9.0,3,n_oxide,1-Nitropropane
CC(C)[N+]([O-])=O,7.7,2,n_oxide,2-Nitropropane
C[S](O)(=O)=O,1.92,2,alcohol,Methylsulfonic acid
CC[S](O)(=O)=O,1.68,3,alcohol,Ethylsulfonic acid
CCC[S](O)(=O)=O,1.53,4,alcohol,Propylsulfonic acid
CC(=O)NO,9.29,3,amine_secondary,Acetohydroxamic acid
CC(=O)NO,9.35,3,amine_secondary,Acetohydroxamic acid
CC(=O)NO,9.07,3,amine_secondary,Acetohydroxamic acid
CC(=O)NO,9.02,3,amine_secondary,Acetohydroxamic acid
CCC(=O)NO,9.44,4,amine_secondary,Propanohydroxamic acid
CN(O)C(C)=O,8.63,1,tertiary_amine,N-Methylacetohydroxamic acid
CC(=O)N(O)c1ccccc1,8.33,6,tertiary_amine,N-Phenylacetohydroxamic acid
Cc1ccc(cc1)N(O)C(C)=O,8.7,11,tertiary_amine,N-(4-Methylphenyl)acetohydroxamic acid
CC(=O)N(O)c1cccc(c1)C#N,8.15,22,nitrile,N-(3-Cyanophenyl)acetohydroxamic acid
CC(=O)N(O)c1ccc(cc1)C#N,8.14,22,nitrile,N-(4-Cyanophenyl)acetohydroxamic acid
CC(=O)N(O)c1cccc(I)c1,8.2,6,tertiary_amine,N-(3-Iodophenyl)acetohydroxamic acid
CC(=O)N(O)c1ccc(I)cc1,8.18,6,tertiary_amine,N-(4-Iodophenyl)acetohydroxamic acid
CC(=O)N(O)c1cccc(c1)C(C)=O,8.23,6,tertiary_amine,N-(3-Acetylphenyl)acetohydroxamic acid
ONC(=O)c1ccccc1,8.76,1,amine_secondary,Benzohydroxamic acid
ONC(=O)c1ccccc1,8.79,1,amine_secondary,Benzohydroxamic acid
ONC(=O)c1ccccc1,8.6,1,amine_secondary,Benzohydroxamic acid
ONC(=O)c1ccccc1,8.68,1,amine_secondary,Benzohydroxamic acid
ONC(=O)c1ccccc1,8.5,1,amine_secondary,Benzohydroxamic acid
ONC(=O)c1ccccc1,9.03,1,amine_secondary,Benzohydroxamic acid
Cc1ccccc1C(=O)NO,8.56,9,amine_secondary,2-Methylbenzohydroxamic acid
CN(O)C(=O)c1ccccc1,8.17,1,tertiary_amine,N-Methylbenzohydroxamic acid
CN(O)C(=O)c1ccc(C)cc1,8.39,1,tertiary_amine,N-Methyl-4-methylbenzohydroxamic acid
CN(O)C(=O)c1ccc(cc1)[N+]([O-])=O,7.83,20,n_oxide,N-Methyl-4-nitrobenzohydroxamic acid
COc1ccc(cc1)C(=O)N(C)O,8.56,17,tertiary_amine,N-Methyl-4-methoxybenzohydroxamic acid
ON(c1ccccc1)C(=O)c2ccccc2,8.15,1,tertiary_amine,N-Phenylbenzohydroxamic acid
ON(c1ccccc1)C(=O)c2ccccc2,8.0,1,tertiary_amine,N-Phenylbenzohydroxamic acid
COc1ccc(cc1)C(=O)NO,8.65,10,amine_secondary,4-Methoxybenzohydroxamic acid
ON(C(=O)C=Cc1ccccc1)c2ccccc2,8.8,1,tertiary_amine,"N,3-Diphenylpropenohydroxamic acid (N-Cinnamoyl-N-phenylhydroxylamine)"
ON(C(=O)C=Cc1ccccc1)c2ccccc2,8.81,1,tertiary_amine,"N,3-Diphenylpropenohydroxamic acid (N-Cinnamoyl-N-phenylhydroxylamine)"
CC(=O)N(O)CCCC1NC(=O)C(CCCN(O)C(C)=O)NC1=O,9.44,6:26,tertiary_amine:tertiary_amine,Rhodotorulic acid
CC(=O)N(O)CCCC1NC(=O)C(CCCN(O)C(C)=O)NC1=O,8.49,6:26,tertiary_amine:tertiary_amine,Rhodotorulic acid
CN(O)C(=O)CCOCC(C)(COCCC(=O)N(C)O)COCCC(=O)N(C)O,9.75,1:28:43,tertiary_amine:tertiary_amine:tertiary_amine,"1,1,1-Tris{[2-{(N-methylhydroxylamino)carbonyl}ethoxy]methyl}ethane"
CN(O)C(=O)CCOCC(C)(COCCC(=O)N(C)O)COCCC(=O)N(C)O,8.99,1:28:43,tertiary_amine:tertiary_amine:tertiary_amine,"1,1,1-Tris{[2-{(N-methylhydroxylamino)carbonyl}ethoxy]methyl}ethane"
CN(O)C(=O)CCOCC(C)(COCCC(=O)N(C)O)COCCC(=O)N(C)O,8.26,1:28:43,tertiary_amine:tertiary_amine:tertiary_amine,"1,1,1-Tris{[2-{(N-methylhydroxylamino)carbonyl}ethoxy]methyl}ethane"
CC(=O)N(O)CCCOCC(C)(COCCCN(O)C(C)=O)COCCCN(O)C(C)=O,9.69,6:25:41,tertiary_amine:tertiary_amine:tertiary_amine,"1,1,1-Tris{[3-(N-acetylhydroxylamino)propoxy]methyl}ethane"
CC(=O)N(O)CCCOCC(C)(COCCCN(O)C(C)=O)COCCCN(O)C(C)=O,9.02,6:25:41,tertiary_amine:tertiary_amine:tertiary_amine,"1,1,1-Tris{[3-(N-acetylhydroxylamino)propoxy]methyl}ethane"
CC(=O)N(O)CCCOCC(C)(COCCCN(O)C(C)=O)COCCCN(O)C(C)=O,8.39,6:25:41,tertiary_amine:tertiary_amine:tertiary_amine,"1,1,1-Tris{[3-(N-acetylhydroxylamino)propoxy]methyl}ethane"
CC(=O)N(O)CCCCCNC(=O)CCC(=O)N(O)CCCCCNC(=O)CCC(=O)N(O)CCCCCN,10.79,38:10:24:4,amine_primary:amine_secondary:amine_secondary:alcohol,Desferriferrioxamin B
CC(=O)N(O)CCCCCNC(=O)CCC(=O)N(O)CCCCCNC(=O)CCC(=O)N(O)CCCCCN,10.89,38:10:24:4,amine_primary:amine_secondary:amine_secondary:alcohol,Desferriferrioxamin B
CC(=O)N(O)CCCCCNC(=O)CCC(=O)N(O)CCCCCNC(=O)CCC(=O)N(O)CCCCCN,9.55,38:10:24:4,amine_primary:amine_secondary:amine_secondary:alcohol,Desferriferrioxamin B
CC(=O)N(O)CCCCCNC(=O)CCC(=O)N(O)CCCCCNC(=O)CCC(=O)N(O)CCCCCN,9.7,38:10:24:4,amine_primary:amine_secondary:amine_secondary:alcohol,Desferriferrioxamin B
CC(=O)N(O)CCCCCNC(=O)CCC(=O)N(O)CCCCCNC(=O)CCC(=O)N(O)CCCCCN,9.61,38:10:24:4,amine_primary:amine_secondary:amine_secondary:alcohol,Desferriferrioxamin B
CC(=O)N(O)CCCCCNC(=O)CCC(=O)N(O)CCCCCNC(=O)CCC(=O)N(O)CCCCCN,8.96,38:10:24:4,amine_primary:amine_secondary:amine_secondary:alcohol,Desferriferrioxamin B
CC(=O)N(O)CCCCCNC(=O)CCC(=O)N(O)CCCCCNC(=O)CCC(=O)N(O)CCCCCN,9.03,38:10:24:4,amine_primary:amine_secondary:amine_secondary:alcohol,Desferriferrioxamin B