SMILES,pKa,Dissociable_Atoms,Functional_Group,Name
OC(=O)CCCCCCCC(O)=O,5.05,0:11,carboxylic_acid:carboxylic_acid,Nonanedioic acid (Azelaic acid)
OC(=O)CCCCCCCC(O)=O,5.12,0:11,carboxylic_acid:carboxylic_acid,Nonanedioic acid (Azelaic acid)
OC(=O)CCCCCCCC(O)=O,5.22,0:11,carboxylic_acid:carboxylic_acid,Nonanedioic acid (Azelaic acid)
OC(=O)CCCCCCCC(O)=O,5.31,0:11,carboxylic_acid:carboxylic_acid,Nonanedioic acid (Azelaic acid)
OC(=O)CCCCCCCC(O)=O,5.42,0:11,carboxylic_acid:carboxylic_acid,Nonanedioic acid (Azelaic acid)
OC(=O)CCCCCCCC(O)=O,4.35,0:11,carboxylic_acid:carboxylic_acid,Nonanedioic acid (Azelaic acid)
OC(=O)CCCCCCCC(O)=O,4.3,0:11,carboxylic_acid:carboxylic_acid,Nonanedioic acid (Azelaic acid)
OC(=O)CCCCCCCC(O)=O,4.33,0:11,carboxylic_acid:carboxylic_acid,Nonanedioic acid (Azelaic acid)
OC(=O)CCCCCCCC(O)=O,4.43,0:11,carboxylic_acid:carboxylic_acid,Nonanedioic acid (Azelaic acid)
OC(=O)CCCCCCCC(O)=O,4.48,0:11,carboxylic_acid:carboxylic_acid,Nonanedioic acid (Azelaic acid)
OC(=O)CCCCCCCC(O)=O,4.6,0:11,carboxylic_acid:carboxylic_acid,Nonanedioic acid (Azelaic acid)
OC(=O)CCCCCCCC(O)=O,4.66,0:11,carboxylic_acid:carboxylic_acid,Nonanedioic acid (Azelaic acid)
OC(=O)CCCCCCCC(O)=O,4.549,0:11,carboxylic_acid:carboxylic_acid,Nonanedioic acid (Azelaic acid)
OC(=O)[C@@H]1CC[C@H](CC1)C(O)=O,5.7,0,carboxylic_acid,"trans-Cyclohexane-1,4-dicarboxylic acid"
OC(=O)[C@@H]1CC[C@H](CC1)C(O)=O,4.65,0,carboxylic_acid,"trans-Cyclohexane-1,4-dicarboxylic acid"
OC(=O)c1ccccc1C(O)=O,4.92,1:9,carboxylic_acid:carboxylic_acid,"Benzene-1,2-dicarboxylic acid (Phthalic acid)"
OC(=O)c1ccccc1C(O)=O,5.08,1:9,carboxylic_acid:carboxylic_acid,"Benzene-1,2-dicarboxylic acid (Phthalic acid)"
OC(=O)c1ccccc1C(O)=O,4.94,1:9,carboxylic_acid:carboxylic_acid,"Benzene-1,2-dicarboxylic acid (Phthalic acid)"
OC(=O)c1ccccc1C(O)=O,5.09,1:9,carboxylic_acid:carboxylic_acid,"Benzene-1,2-dicarboxylic acid (Phthalic acid)"
OC(=O)c1ccccc1C(O)=O,4.65,1:9,carboxylic_acid:carboxylic_acid,"Benzene-1,2-dicarboxylic acid (Phthalic acid)"
OC(=O)c1ccccc1C(O)=O,4.72,1:9,carboxylic_acid:carboxylic_acid,"Benzene-1,2-dicarboxylic acid (Phthalic acid)"
OC(=O)c1ccccc1C(O)=O,5.21,1:9,carboxylic_acid:carboxylic_acid,"Benzene-1,2-dicarboxylic acid (Phthalic acid)"
OC(=O)c1ccccc1C(O)=O,5.48,1:9,carboxylic_acid:carboxylic_acid,"Benzene-1,2-dicarboxylic acid (Phthalic acid)"
OC(=O)c1ccccc1C(O)=O,4.73,1:9,carboxylic_acid:carboxylic_acid,"Benzene-1,2-dicarboxylic acid (Phthalic acid)"
OC(=O)c1ccccc1C(O)=O,4.87,1:9,carboxylic_acid:carboxylic_acid,"Benzene-1,2-dicarboxylic acid (Phthalic acid)"
OC(=O)c1ccccc1C(O)=O,5.41,1:9,carboxylic_acid:carboxylic_acid,"Benzene-1,2-dicarboxylic acid (Phthalic acid)"
OC(=O)c1ccccc1C(O)=O,5.411,1:9,carboxylic_acid:carboxylic_acid,"Benzene-1,2-dicarboxylic acid (Phthalic acid)"
OC(=O)c1ccccc1C(O)=O,5.442,1:9,carboxylic_acid:carboxylic_acid,"Benzene-1,2-dicarboxylic acid (Phthalic acid)"
OC(=O)c1ccccc1C(O)=O,2.76,1:9,carboxylic_acid:carboxylic_acid,"Benzene-1,2-dicarboxylic acid (Phthalic acid)"
OC(=O)c1ccccc1C(O)=O,2.77,1:9,carboxylic_acid:carboxylic_acid,"Benzene-1,2-dicarboxylic acid (Phthalic acid)"
OC(=O)c1ccccc1C(O)=O,2.66,1:9,carboxylic_acid:carboxylic_acid,"Benzene-1,2-dicarboxylic acid (Phthalic acid)"
OC(=O)c1ccccc1C(O)=O,2.86,1:9,carboxylic_acid:carboxylic_acid,"Benzene-1,2-dicarboxylic acid (Phthalic acid)"
OC(=O)c1ccccc1C(O)=O,3.0,1:9,carboxylic_acid:carboxylic_acid,"Benzene-1,2-dicarboxylic acid (Phthalic acid)"
OC(=O)c1ccccc1C(O)=O,2.8,1:9,carboxylic_acid:carboxylic_acid,"Benzene-1,2-dicarboxylic acid (Phthalic acid)"
OC(=O)c1ccccc1C(O)=O,2.98,1:9,carboxylic_acid:carboxylic_acid,"Benzene-1,2-dicarboxylic acid (Phthalic acid)"
OC(=O)c1ccccc1C(O)=O,2.931,1:9,carboxylic_acid:carboxylic_acid,"Benzene-1,2-dicarboxylic acid (Phthalic acid)"
OC(=O)c1ccccc1C(O)=O,2.95,1:9,carboxylic_acid:carboxylic_acid,"Benzene-1,2-dicarboxylic acid (Phthalic acid)"
OC(=O)c1ccccc1C(O)=O,2.978,1:9,carboxylic_acid:carboxylic_acid,"Benzene-1,2-dicarboxylic acid (Phthalic acid)"
OC(=O)c1cccc(c1)C(O)=O,4.38,0:10,carboxylic_acid:carboxylic_acid,"Benzene-1,3-dicarboxylic acid (Isophthalic acid)"
OC(=O)c1cccc(c1)C(O)=O,4.16,0:10,carboxylic_acid:carboxylic_acid,"Benzene-1,3-dicarboxylic acid (Isophthalic acid)"
OC(=O)c1cccc(c1)C(O)=O,4.5,0:10,carboxylic_acid:carboxylic_acid,"Benzene-1,3-dicarboxylic acid (Isophthalic acid)"
OC(=O)c1cccc(c1)C(O)=O,3.3,0:10,carboxylic_acid:carboxylic_acid,"Benzene-1,3-dicarboxylic acid (Isophthalic acid)"
OC(=O)c1cccc(c1)C(O)=O,3.41,0:10,carboxylic_acid:carboxylic_acid,"Benzene-1,3-dicarboxylic acid (Isophthalic acid)"
OC(=O)c1cccc(c1)C(O)=O,3.5,0:10,carboxylic_acid:carboxylic_acid,"Benzene-1,3-dicarboxylic acid (Isophthalic acid)"
OC(=O)c1ccc(cc1)C(O)=O,4.15,0:10,carboxylic_acid:carboxylic_acid,"Benzene-1,4-dicarboxylic acid (Terephthalic acid)"
OC(=O)c1ccc(cc1)C(O)=O,4.34,0:10,carboxylic_acid:carboxylic_acid,"Benzene-1,4-dicarboxylic acid (Terephthalic acid)"
OC(=O)c1ccc(cc1)C(O)=O,4.48,0:10,carboxylic_acid:carboxylic_acid,"Benzene-1,4-dicarboxylic acid (Terephthalic acid)"
OC(=O)c1ccc(cc1)C(O)=O,3.38,0:10,carboxylic_acid:carboxylic_acid,"Benzene-1,4-dicarboxylic acid (Terephthalic acid)"
OC(=O)c1ccc(cc1)C(O)=O,3.58,0:10,carboxylic_acid:carboxylic_acid,"Benzene-1,4-dicarboxylic acid (Terephthalic acid)"
Cc1ccc(C(O)=O)c(c1)C(O)=O,5.26,6:11,carboxylic_acid:carboxylic_acid,"4-Methylbenzene-1,2-dicarboxylic acid (4-Methylphthalic acid)"
Cc1ccc(C(O)=O)c(c1)C(O)=O,5.68,6:11,carboxylic_acid:carboxylic_acid,"4-Methylbenzene-1,2-dicarboxylic acid (4-Methylphthalic acid)"
Cc1ccc(C(O)=O)c(c1)C(O)=O,3.04,6:11,carboxylic_acid:carboxylic_acid,"4-Methylbenzene-1,2-dicarboxylic acid (4-Methylphthalic acid)"
Cc1ccc(C(O)=O)c(c1)C(O)=O,3.06,6:11,carboxylic_acid:carboxylic_acid,"4-Methylbenzene-1,2-dicarboxylic acid (4-Methylphthalic acid)"
OC(=O)c1cccc(Br)c1C(O)=O,4.35,0:11,carboxylic_acid:carboxylic_acid,"3-Bromobenzene-1,2-dicarboxylic acid (3-Bromophthalic acid)"
OC(=O)c1cccc(Br)c1C(O)=O,2.37,0:11,carboxylic_acid:carboxylic_acid,"3-Bromobenzene-1,2-dicarboxylic acid (3-Bromophthalic acid)"
OC(=O)c1ccc(Br)cc1C(O)=O,4.6,0:11,carboxylic_acid:carboxylic_acid,"4-Bromobenzene-1,2-dicarboxylic acid (4-Bromophthalic acid)"
OC(=O)c1ccc(Br)cc1C(O)=O,2.5,0:11,carboxylic_acid:carboxylic_acid,"4-Bromobenzene-1,2-dicarboxylic acid (4-Bromophthalic acid)"
OC(=O)c1cccc(c1C(O)=O)[N+]([O-])=O,3.93,0:10,carboxylic_acid:carboxylic_acid,"3-Nitrobenzene-1,2-dicarboxylic acid (3-Nitrophthalic acid)"
OC(=O)c1cccc(c1C(O)=O)[N+]([O-])=O,4.48,0:10,carboxylic_acid:carboxylic_acid,"3-Nitrobenzene-1,2-dicarboxylic acid (3-Nitrophthalic acid)"
OC(=O)c1cccc(c1C(O)=O)[N+]([O-])=O,2.11,0:10,carboxylic_acid:carboxylic_acid,"3-Nitrobenzene-1,2-dicarboxylic acid (3-Nitrophthalic acid)"
OC(=O)c1ccc(cc1C(O)=O)[N+]([O-])=O,4.12,0:10,carboxylic_acid:carboxylic_acid,"4-Nitrobenzene-1,2-dicarboxylic acid (4-Nitrophthalic acid)"
OC(=O)c1ccc(cc1C(O)=O)[N+]([O-])=O,4.44,0:10,carboxylic_acid:carboxylic_acid,"4-Nitrobenzene-1,2-dicarboxylic acid (4-Nitrophthalic acid)"
OC(=O)c1ccc(cc1C(O)=O)[N+]([O-])=O,2.02,0:10,carboxylic_acid:carboxylic_acid,"4-Nitrobenzene-1,2-dicarboxylic acid (4-Nitrophthalic acid)"
OC(=O)c1ccccc1c2ccccc2C(O)=O,3.27,0,carboxylic_acid,"Biphenyl-2,2'-dicarboxylic acid (Diphenic acid)"
CC(=O)Oc1c(cccc1C(O)=O)C(O)=O,3.8,14:11,carboxylic_acid:carboxylic_acid,"2-Acetoxybenzene-1,3-dicarboxylic acid (2-Acetoxyisophthalic acid)"
CC(=O)Oc1c(cccc1C(O)=O)C(O)=O,2.85,14:11,carboxylic_acid:carboxylic_acid,"2-Acetoxybenzene-1,3-dicarboxylic acid (2-Acetoxyisophthalic acid)"
CC(=O)N[C@@H](CC(O)=O)C(O)=O,4.49,7:10,carboxylic_acid:carboxylic_acid,2-(Acetylamino)butanedioic acid (N-Acetylaspartic acid)
CC(=O)N[C@@H](CC(O)=O)C(O)=O,3.04,7:10,carboxylic_acid:carboxylic_acid,2-(Acetylamino)butanedioic acid (N-Acetylaspartic acid)
CC(=O)N[C@@H](CCC(O)=O)C(O)=O,4.6,8:11,carboxylic_acid:carboxylic_acid,2-(Acetylamino)pentanedioic acid (N-Acetylglutamic acid)
CC(=O)N[C@@H](CCC(O)=O)C(O)=O,3.29,8:11,carboxylic_acid:carboxylic_acid,2-(Acetylamino)pentanedioic acid (N-Acetylglutamic acid)
C[C@@](CCC(O)=O)(NC(=O)c1ccccc1)C(O)=O,4.63,5:17,carboxylic_acid:carboxylic_acid,"3-(Benzoylamino)butane-1,3-dicarboxylic acid (N-Benzoyl-2-methylglutamic acid)"
C[C@@](CCC(O)=O)(NC(=O)c1ccccc1)C(O)=O,3.51,5:17,carboxylic_acid:carboxylic_acid,"3-(Benzoylamino)butane-1,3-dicarboxylic acid (N-Benzoyl-2-methylglutamic acid)"
OC(=O)COCC(O)=O,3.94,0:7,carboxylic_acid:carboxylic_acid,Oxydiacetic acid (Diglycolic acid)
OC(=O)COCC(O)=O,4.0,0:7,carboxylic_acid:carboxylic_acid,Oxydiacetic acid (Diglycolic acid)
OC(=O)COCC(O)=O,4.02,0:7,carboxylic_acid:carboxylic_acid,Oxydiacetic acid (Diglycolic acid)
OC(=O)COCC(O)=O,3.76,0:7,carboxylic_acid:carboxylic_acid,Oxydiacetic acid (Diglycolic acid)
OC(=O)COCC(O)=O,4.36,0:7,carboxylic_acid:carboxylic_acid,Oxydiacetic acid (Diglycolic acid)
OC(=O)COCC(O)=O,2.82,0:7,carboxylic_acid:carboxylic_acid,Oxydiacetic acid (Diglycolic acid)
OC(=O)COCC(O)=O,2.83,0:7,carboxylic_acid:carboxylic_acid,Oxydiacetic acid (Diglycolic acid)
OC(=O)COCC(O)=O,2.8,0:7,carboxylic_acid:carboxylic_acid,Oxydiacetic acid (Diglycolic acid)
OC(=O)COCC(O)=O,2.81,0:7,carboxylic_acid:carboxylic_acid,Oxydiacetic acid (Diglycolic acid)
OC(=O)COCC(O)=O,3.01,0:7,carboxylic_acid:carboxylic_acid,Oxydiacetic acid (Diglycolic acid)
OC(C(O)=O)C(O)=O,4.24,3:6,carboxylic_acid:carboxylic_acid,Hydroxypropanedioic acid (Hydroxymalonic acid)(Tartronic acid)
OC(C(O)=O)C(O)=O,2.02,3:6,carboxylic_acid:carboxylic_acid,Hydroxypropanedioic acid (Hydroxymalonic acid)(Tartronic acid)
OC(CC(O)=O)C(O)=O,4.68,4:7,carboxylic_acid:carboxylic_acid,L-Hydroxybutanedioic acid (Hydroxysuccinic acid)(Malic acid)
OC(CC(O)=O)C(O)=O,4.75,4:7,carboxylic_acid:carboxylic_acid,L-Hydroxybutanedioic acid (Hydroxysuccinic acid)(Malic acid)
OC(CC(O)=O)C(O)=O,4.76,4:7,carboxylic_acid:carboxylic_acid,L-Hydroxybutanedioic acid (Hydroxysuccinic acid)(Malic acid)
OC(CC(O)=O)C(O)=O,4.52,4:7,carboxylic_acid:carboxylic_acid,L-Hydroxybutanedioic acid (Hydroxysuccinic acid)(Malic acid)
OC(CC(O)=O)C(O)=O,4.45,4:7,carboxylic_acid:carboxylic_acid,L-Hydroxybutanedioic acid (Hydroxysuccinic acid)(Malic acid)
OC(CC(O)=O)C(O)=O,4.53,4:7,carboxylic_acid:carboxylic_acid,L-Hydroxybutanedioic acid (Hydroxysuccinic acid)(Malic acid)
OC(CC(O)=O)C(O)=O,5.097,4:7,carboxylic_acid:carboxylic_acid,L-Hydroxybutanedioic acid (Hydroxysuccinic acid)(Malic acid)
OC(CC(O)=O)C(O)=O,3.24,4:7,carboxylic_acid:carboxylic_acid,L-Hydroxybutanedioic acid (Hydroxysuccinic acid)(Malic acid)
OC(CC(O)=O)C(O)=O,3.29,4:7,carboxylic_acid:carboxylic_acid,L-Hydroxybutanedioic acid (Hydroxysuccinic acid)(Malic acid)
OC(CC(O)=O)C(O)=O,3.2,4:7,carboxylic_acid:carboxylic_acid,L-Hydroxybutanedioic acid (Hydroxysuccinic acid)(Malic acid)
OC(CC(O)=O)C(O)=O,3.27,4:7,carboxylic_acid:carboxylic_acid,L-Hydroxybutanedioic acid (Hydroxysuccinic acid)(Malic acid)
OC(CC(O)=O)C(O)=O,3.15,4:7,carboxylic_acid:carboxylic_acid,L-Hydroxybutanedioic acid (Hydroxysuccinic acid)(Malic acid)
OC(CC(O)=O)C(O)=O,3.19,4:7,carboxylic_acid:carboxylic_acid,L-Hydroxybutanedioic acid (Hydroxysuccinic acid)(Malic acid)
OC(CC(O)=O)C(O)=O,3.23,4:7,carboxylic_acid:carboxylic_acid,L-Hydroxybutanedioic acid (Hydroxysuccinic acid)(Malic acid)
OC(CC(O)=O)C(O)=O,3.459,4:7,carboxylic_acid:carboxylic_acid,L-Hydroxybutanedioic acid (Hydroxysuccinic acid)(Malic acid)
CC(O)(CC(O)=O)C(O)=O,4.83,5:8,carboxylic_acid:carboxylic_acid,DL-2-Hydroxy-2-methylbutanedioic acid (2-Hydroxy-2-methylsuccinic acid) (Citramalic acid)
CC(O)(CC(O)=O)C(O)=O,3.24,5:8,carboxylic_acid:carboxylic_acid,DL-2-Hydroxy-2-methylbutanedioic acid (2-Hydroxy-2-methylsuccinic acid) (Citramalic acid)
O[C@@H]([C@H](O)C(O)=O)C(O)=O,3.97,5:8,carboxylic_acid:carboxylic_acid,"D-2,3-Dihydroxybutanedioic acid (D-Tartaric acid)"
O[C@@H]([C@H](O)C(O)=O)C(O)=O,4.0,5:8,carboxylic_acid:carboxylic_acid,"D-2,3-Dihydroxybutanedioic acid (D-Tartaric acid)"
O[C@@H]([C@H](O)C(O)=O)C(O)=O,3.96,5:8,carboxylic_acid:carboxylic_acid,"D-2,3-Dihydroxybutanedioic acid (D-Tartaric acid)"
O[C@@H]([C@H](O)C(O)=O)C(O)=O,3.7,5:8,carboxylic_acid:carboxylic_acid,"D-2,3-Dihydroxybutanedioic acid (D-Tartaric acid)"
O[C@@H]([C@H](O)C(O)=O)C(O)=O,3.69,5:8,carboxylic_acid:carboxylic_acid,"D-2,3-Dihydroxybutanedioic acid (D-Tartaric acid)"
O[C@@H]([C@H](O)C(O)=O)C(O)=O,3.81,5:8,carboxylic_acid:carboxylic_acid,"D-2,3-Dihydroxybutanedioic acid (D-Tartaric acid)"
O[C@@H]([C@H](O)C(O)=O)C(O)=O,3.93,5:8,carboxylic_acid:carboxylic_acid,"D-2,3-Dihydroxybutanedioic acid (D-Tartaric acid)"
O[C@@H]([C@H](O)C(O)=O)C(O)=O,4.366,5:8,carboxylic_acid:carboxylic_acid,"D-2,3-Dihydroxybutanedioic acid (D-Tartaric acid)"
O[C@@H]([C@H](O)C(O)=O)C(O)=O,2.82,5:8,carboxylic_acid:carboxylic_acid,"D-2,3-Dihydroxybutanedioic acid (D-Tartaric acid)"
O[C@@H]([C@H](O)C(O)=O)C(O)=O,2.83,5:8,carboxylic_acid:carboxylic_acid,"D-2,3-Dihydroxybutanedioic acid (D-Tartaric acid)"
O[C@@H]([C@H](O)C(O)=O)C(O)=O,2.68,5:8,carboxylic_acid:carboxylic_acid,"D-2,3-Dihydroxybutanedioic acid (D-Tartaric acid)"
O[C@@H]([C@H](O)C(O)=O)C(O)=O,2.74,5:8,carboxylic_acid:carboxylic_acid,"D-2,3-Dihydroxybutanedioic acid (D-Tartaric acid)"
O[C@@H]([C@H](O)C(O)=O)C(O)=O,2.98,5:8,carboxylic_acid:carboxylic_acid,"D-2,3-Dihydroxybutanedioic acid (D-Tartaric acid)"
O[C@@H]([C@H](O)C(O)=O)C(O)=O,3.036,5:8,carboxylic_acid:carboxylic_acid,"D-2,3-Dihydroxybutanedioic acid (D-Tartaric acid)"
OC(C(O)C(O)=O)C(O)=O,4.49,5:8,carboxylic_acid:carboxylic_acid,"meso-2,3-Dihydroxybutanedioic acid (meso-Tartaric acid)"
OC(C(O)C(O)=O)C(O)=O,4.11,5:8,carboxylic_acid:carboxylic_acid,"meso-2,3-Dihydroxybutanedioic acid (meso-Tartaric acid)"
OC(C(O)C(O)=O)C(O)=O,4.91,5:8,carboxylic_acid:carboxylic_acid,"meso-2,3-Dihydroxybutanedioic acid (meso-Tartaric acid)"
OC(C(O)C(O)=O)C(O)=O,2.97,5:8,carboxylic_acid:carboxylic_acid,"meso-2,3-Dihydroxybutanedioic acid (meso-Tartaric acid)"
OC(C(O)C(O)=O)C(O)=O,2.87,5:8,carboxylic_acid:carboxylic_acid,"meso-2,3-Dihydroxybutanedioic acid (meso-Tartaric acid)"
OC(C(O)C(O)=O)C(O)=O,3.17,5:8,carboxylic_acid:carboxylic_acid,"meso-2,3-Dihydroxybutanedioic acid (meso-Tartaric acid)"
O[C@@H]([C@H](O)[C@H](O)C(O)=O)[C@@H](O)C(O)=O,3.97,7:12,carboxylic_acid:carboxylic_acid,"D-2,3,4,5-Tetrahydroxyhexanedioic acid (D-Saccharic acid) (D-Glucaric acid)"
O[C@@H]([C@H](O)[C@H](O)C(O)=O)[C@@H](O)C(O)=O,3.17,7:12,carboxylic_acid:carboxylic_acid,"D-2,3,4,5-Tetrahydroxyhexanedioic acid (D-Saccharic acid) (D-Glucaric acid)"
OC(C(O)C(O)C(O)=O)C(O)C(O)=O,3.86,7:12,carboxylic_acid:carboxylic_acid,"2,3,4,5-Tetrahydroxyhexanedioic acid (Galactaric acid)(Mucic acid)"
OC(C(O)C(O)C(O)=O)C(O)C(O)=O,3.63,7:12,carboxylic_acid:carboxylic_acid,"2,3,4,5-Tetrahydroxyhexanedioic acid (Galactaric acid)(Mucic acid)"
OC(C(O)C(O)C(O)=O)C(O)C(O)=O,3.16,7:12,carboxylic_acid:carboxylic_acid,"2,3,4,5-Tetrahydroxyhexanedioic acid (Galactaric acid)(Mucic acid)"
OC(C(O)C(O)C(O)=O)C(O)C(O)=O,3.08,7:12,carboxylic_acid:carboxylic_acid,"2,3,4,5-Tetrahydroxyhexanedioic acid (Galactaric acid)(Mucic acid)"
OC(=O)CC(CC(O)=O)C(O)=O,5.85,0:7:10,carboxylic_acid:carboxylic_acid:carboxylic_acid,"Propane-1,2,3-tricarboxylic acid (Tricarballylic acid)"
OC(=O)CC(CC(O)=O)C(O)=O,5.55,0:7:10,carboxylic_acid:carboxylic_acid:carboxylic_acid,"Propane-1,2,3-tricarboxylic acid (Tricarballylic acid)"
OC(=O)CC(CC(O)=O)C(O)=O,5.48,0:7:10,carboxylic_acid:carboxylic_acid:carboxylic_acid,"Propane-1,2,3-tricarboxylic acid (Tricarballylic acid)"
OC(=O)CC(CC(O)=O)C(O)=O,5.42,0:7:10,carboxylic_acid:carboxylic_acid:carboxylic_acid,"Propane-1,2,3-tricarboxylic acid (Tricarballylic acid)"
OC(=O)CC(CC(O)=O)C(O)=O,5.49,0:7:10,carboxylic_acid:carboxylic_acid:carboxylic_acid,"Propane-1,2,3-tricarboxylic acid (Tricarballylic acid)"
OC(=O)CC(CC(O)=O)C(O)=O,5.57,0:7:10,carboxylic_acid:carboxylic_acid:carboxylic_acid,"Propane-1,2,3-tricarboxylic acid (Tricarballylic acid)"
OC(=O)CC(CC(O)=O)C(O)=O,6.44,0:7:10,carboxylic_acid:carboxylic_acid:carboxylic_acid,"Propane-1,2,3-tricarboxylic acid (Tricarballylic acid)"
OC(=O)CC(CC(O)=O)C(O)=O,4.51,0:7:10,carboxylic_acid:carboxylic_acid:carboxylic_acid,"Propane-1,2,3-tricarboxylic acid (Tricarballylic acid)"
OC(=O)CC(CC(O)=O)C(O)=O,4.33,0:7:10,carboxylic_acid:carboxylic_acid:carboxylic_acid,"Propane-1,2,3-tricarboxylic acid (Tricarballylic acid)"
OC(=O)CC(CC(O)=O)C(O)=O,4.39,0:7:10,carboxylic_acid:carboxylic_acid:carboxylic_acid,"Propane-1,2,3-tricarboxylic acid (Tricarballylic acid)"
OC(=O)CC(CC(O)=O)C(O)=O,4.35,0:7:10,carboxylic_acid:carboxylic_acid:carboxylic_acid,"Propane-1,2,3-tricarboxylic acid (Tricarballylic acid)"
OC(=O)CC(CC(O)=O)C(O)=O,4.55,0:7:10,carboxylic_acid:carboxylic_acid:carboxylic_acid,"Propane-1,2,3-tricarboxylic acid (Tricarballylic acid)"
OC(=O)CC(CC(O)=O)C(O)=O,4.47,0:7:10,carboxylic_acid:carboxylic_acid:carboxylic_acid,"Propane-1,2,3-tricarboxylic acid (Tricarballylic acid)"
OC(=O)CC(CC(O)=O)C(O)=O,4.9,0:7:10,carboxylic_acid:carboxylic_acid:carboxylic_acid,"Propane-1,2,3-tricarboxylic acid (Tricarballylic acid)"
OC(=O)CC(CC(O)=O)C(O)=O,3.47,0:7:10,carboxylic_acid:carboxylic_acid:carboxylic_acid,"Propane-1,2,3-tricarboxylic acid (Tricarballylic acid)"
OC(=O)CC(CC(O)=O)C(O)=O,3.38,0:7:10,carboxylic_acid:carboxylic_acid:carboxylic_acid,"Propane-1,2,3-tricarboxylic acid (Tricarballylic acid)"
OC(=O)CC(CC(O)=O)C(O)=O,3.4,0:7:10,carboxylic_acid:carboxylic_acid:carboxylic_acid,"Propane-1,2,3-tricarboxylic acid (Tricarballylic acid)"
OC(=O)CC(CC(O)=O)C(O)=O,3.44,0:7:10,carboxylic_acid:carboxylic_acid:carboxylic_acid,"Propane-1,2,3-tricarboxylic acid (Tricarballylic acid)"
OC(=O)CC(CC(O)=O)C(O)=O,3.45,0:7:10,carboxylic_acid:carboxylic_acid:carboxylic_acid,"Propane-1,2,3-tricarboxylic acid (Tricarballylic acid)"
OC(=O)CC(CC(O)=O)C(O)=O,3.53,0:7:10,carboxylic_acid:carboxylic_acid:carboxylic_acid,"Propane-1,2,3-tricarboxylic acid (Tricarballylic acid)"
OC(=O)CC(CC(O)=O)C(O)=O,3.67,0:7:10,carboxylic_acid:carboxylic_acid:carboxylic_acid,"Propane-1,2,3-tricarboxylic acid (Tricarballylic acid)"
OC(=O)CC(CC(O)=O)CC(O)=O,4.81,0:7:11,carboxylic_acid:carboxylic_acid:carboxylic_acid,3-(Carboxymethyl)pentanedioic acid
OC(=O)CC(CC(O)=O)CC(O)=O,4.1,0:7:11,carboxylic_acid:carboxylic_acid:carboxylic_acid,3-(Carboxymethyl)pentanedioic acid
OC(=O)CC(CC(O)=O)CC(O)=O,3.3,0:7:11,carboxylic_acid:carboxylic_acid:carboxylic_acid,3-(Carboxymethyl)pentanedioic acid
OC(=O)C\C(=C/C(O)=O)C(O)=O,5.71,0:7:10,carboxylic_acid:carboxylic_acid:carboxylic_acid,"cis-Propene-1,2,3-tricarboxylic acid (cis-Aconitic acid)"
OC(=O)C\C(=C/C(O)=O)C(O)=O,3.97,0:7:10,carboxylic_acid:carboxylic_acid:carboxylic_acid,"cis-Propene-1,2,3-tricarboxylic acid (cis-Aconitic acid)"
OC(=O)C\C(=C/C(O)=O)C(O)=O,2.62,0:7:10,carboxylic_acid:carboxylic_acid:carboxylic_acid,"cis-Propene-1,2,3-tricarboxylic acid (cis-Aconitic acid)"
OC(=O)c1cccc(C(O)=O)c1C(O)=O,5.5,0:9:13,carboxylic_acid:carboxylic_acid:carboxylic_acid,"Benzene-1,2,3-tricarboxylic acid (Hemimellitic acid)"
OC(=O)c1cccc(C(O)=O)c1C(O)=O,5.77,0:9:13,carboxylic_acid:carboxylic_acid:carboxylic_acid,"Benzene-1,2,3-tricarboxylic acid (Hemimellitic acid)"
OC(=O)c1cccc(C(O)=O)c1C(O)=O,4.82,0:9:13,carboxylic_acid:carboxylic_acid:carboxylic_acid,"Benzene-1,2,3-tricarboxylic acid (Hemimellitic acid)"
OC(=O)c1cccc(C(O)=O)c1C(O)=O,5.0,0:9:13,carboxylic_acid:carboxylic_acid:carboxylic_acid,"Benzene-1,2,3-tricarboxylic acid (Hemimellitic acid)"
OC(=O)c1cccc(C(O)=O)c1C(O)=O,6.26,0:9:13,carboxylic_acid:carboxylic_acid:carboxylic_acid,"Benzene-1,2,3-tricarboxylic acid (Hemimellitic acid)"
OC(=O)c1cccc(C(O)=O)c1C(O)=O,3.86,0:9:13,carboxylic_acid:carboxylic_acid:carboxylic_acid,"Benzene-1,2,3-tricarboxylic acid (Hemimellitic acid)"
OC(=O)c1cccc(C(O)=O)c1C(O)=O,4.0,0:9:13,carboxylic_acid:carboxylic_acid:carboxylic_acid,"Benzene-1,2,3-tricarboxylic acid (Hemimellitic acid)"
OC(=O)c1cccc(C(O)=O)c1C(O)=O,3.58,0:9:13,carboxylic_acid:carboxylic_acid:carboxylic_acid,"Benzene-1,2,3-tricarboxylic acid (Hemimellitic acid)"