SMILES,pKa,Dissociable_Atoms,Functional_Group,Name,Dissociable_Atoms_Ordered,Functional_Group_Ordered,Dissociation_Order
NCCN,6.83,0:3,amine_primary:amine_primary,Ethylenediamine,0:3,amine_primary:amine_primary,0(amine_primary) > 3(amine_primary)
NCCN,7.31,0:3,amine_primary:amine_primary,Ethylenediamine,0:3,amine_primary:amine_primary,0(amine_primary) > 3(amine_primary)
NCCN,7.47,0:3,amine_primary:amine_primary,Ethylenediamine,0:3,amine_primary:amine_primary,0(amine_primary) > 3(amine_primary)
NCCN,7.69,0:3,amine_primary:amine_primary,Ethylenediamine,0:3,amine_primary:amine_primary,0(amine_primary) > 3(amine_primary)
NCCN,7.93,0:3,amine_primary:amine_primary,Ethylenediamine,0:3,amine_primary:amine_primary,0(amine_primary) > 3(amine_primary)
NCCN,8.21,0:3,amine_primary:amine_primary,Ethylenediamine,0:3,amine_primary:amine_primary,0(amine_primary) > 3(amine_primary)
NCCN,7.266,0:3,amine_primary:amine_primary,Ethylenediamine,0:3,amine_primary:amine_primary,0(amine_primary) > 3(amine_primary)
NCCN,6.848,0:3,amine_primary:amine_primary,Ethylenediamine,0:3,amine_primary:amine_primary,0(amine_primary) > 3(amine_primary)
NCCN,6.463,0:3,amine_primary:amine_primary,Ethylenediamine,0:3,amine_primary:amine_primary,0(amine_primary) > 3(amine_primary)
CC(N)CN,9.81,2:4,amine_primary:amine_primary,"DL-Methylethylenediamine (1,2-Propylenediamine) (pn)",2:4,amine_primary:amine_primary,2(amine_primary) > 4(amine_primary)
CC(N)CN,9.94,2:4,amine_primary:amine_primary,"DL-Methylethylenediamine (1,2-Propylenediamine) (pn)",2:4,amine_primary:amine_primary,2(amine_primary) > 4(amine_primary)
CC(N)CN,10.09,2:4,amine_primary:amine_primary,"DL-Methylethylenediamine (1,2-Propylenediamine) (pn)",2:4,amine_primary:amine_primary,2(amine_primary) > 4(amine_primary)
CC(N)CN,10.24,2:4,amine_primary:amine_primary,"DL-Methylethylenediamine (1,2-Propylenediamine) (pn)",2:4,amine_primary:amine_primary,2(amine_primary) > 4(amine_primary)
CC(N)CN,10.47,2:4,amine_primary:amine_primary,"DL-Methylethylenediamine (1,2-Propylenediamine) (pn)",2:4,amine_primary:amine_primary,2(amine_primary) > 4(amine_primary)
CC(N)CN,9.77,2:4,amine_primary:amine_primary,"DL-Methylethylenediamine (1,2-Propylenediamine) (pn)",2:4,amine_primary:amine_primary,2(amine_primary) > 4(amine_primary)
CC(N)CN,6.85,2:4,amine_primary:amine_primary,"DL-Methylethylenediamine (1,2-Propylenediamine) (pn)",2:4,amine_primary:amine_primary,2(amine_primary) > 4(amine_primary)
CC(N)CN,7.07,2:4,amine_primary:amine_primary,"DL-Methylethylenediamine (1,2-Propylenediamine) (pn)",2:4,amine_primary:amine_primary,2(amine_primary) > 4(amine_primary)
CC(N)CN,7.22,2:4,amine_primary:amine_primary,"DL-Methylethylenediamine (1,2-Propylenediamine) (pn)",2:4,amine_primary:amine_primary,2(amine_primary) > 4(amine_primary)
CC(N)CN,7.45,2:4,amine_primary:amine_primary,"DL-Methylethylenediamine (1,2-Propylenediamine) (pn)",2:4,amine_primary:amine_primary,2(amine_primary) > 4(amine_primary)
CC(N)CN,7.65,2:4,amine_primary:amine_primary,"DL-Methylethylenediamine (1,2-Propylenediamine) (pn)",2:4,amine_primary:amine_primary,2(amine_primary) > 4(amine_primary)
CC(N)CN,6.61,2:4,amine_primary:amine_primary,"DL-Methylethylenediamine (1,2-Propylenediamine) (pn)",2:4,amine_primary:amine_primary,2(amine_primary) > 4(amine_primary)
CCC(N)CN,9.66,3:5,amine_primary:amine_primary,"DL-Ethylethylenediamine (1,2-Butylenediamine)",3:5,amine_primary:amine_primary,3(amine_primary) > 5(amine_primary)
CCC(N)CN,9.39,3:5,amine_primary:amine_primary,"DL-Ethylethylenediamine (1,2-Butylenediamine)",3:5,amine_primary:amine_primary,3(amine_primary) > 5(amine_primary)
CCC(N)CN,6.65,3:5,amine_primary:amine_primary,"DL-Ethylethylenediamine (1,2-Butylenediamine)",3:5,amine_primary:amine_primary,3(amine_primary) > 5(amine_primary)
CCC(N)CN,6.4,3:5,amine_primary:amine_primary,"DL-Ethylethylenediamine (1,2-Butylenediamine)",3:5,amine_primary:amine_primary,3(amine_primary) > 5(amine_primary)
CC(C)(C)NCCN,9.78,4:7,amine_secondary:amine_primary,DL-(2-Methyl-2-propyl)ethylenediamine (t-Butylethylenediamine),7:4,amine_primary:amine_secondary,7(amine_primary) > 4(amine_secondary)
CC(C)(C)NCCN,6.26,4:7,amine_secondary:amine_primary,DL-(2-Methyl-2-propyl)ethylenediamine (t-Butylethylenediamine),7:4,amine_primary:amine_secondary,7(amine_primary) > 4(amine_secondary)
CC(C)(N)CN,9.75,3:5,amine_primary:amine_primary,"1,1-Dimethylethylenediamine",3:5,amine_primary:amine_primary,3(amine_primary) > 5(amine_primary)
CC(C)(N)CN,9.89,3:5,amine_primary:amine_primary,"1,1-Dimethylethylenediamine",3:5,amine_primary:amine_primary,3(amine_primary) > 5(amine_primary)
CC(C)(N)CN,10.06,3:5,amine_primary:amine_primary,"1,1-Dimethylethylenediamine",3:5,amine_primary:amine_primary,3(amine_primary) > 5(amine_primary)
CC(C)(N)CN,10.31,3:5,amine_primary:amine_primary,"1,1-Dimethylethylenediamine",3:5,amine_primary:amine_primary,3(amine_primary) > 5(amine_primary)
CC(C)(N)CN,9.62,3:5,amine_primary:amine_primary,"1,1-Dimethylethylenediamine",3:5,amine_primary:amine_primary,3(amine_primary) > 5(amine_primary)
CC(C)(N)CN,6.46,3:5,amine_primary:amine_primary,"1,1-Dimethylethylenediamine",3:5,amine_primary:amine_primary,3(amine_primary) > 5(amine_primary)
CC(C)(N)CN,6.65,3:5,amine_primary:amine_primary,"1,1-Dimethylethylenediamine",3:5,amine_primary:amine_primary,3(amine_primary) > 5(amine_primary)
CC(C)(N)CN,6.84,3:5,amine_primary:amine_primary,"1,1-Dimethylethylenediamine",3:5,amine_primary:amine_primary,3(amine_primary) > 5(amine_primary)
CC(C)(N)CN,7.07,3:5,amine_primary:amine_primary,"1,1-Dimethylethylenediamine",3:5,amine_primary:amine_primary,3(amine_primary) > 5(amine_primary)
CC(C)(N)CN,6.21,3:5,amine_primary:amine_primary,"1,1-Dimethylethylenediamine",3:5,amine_primary:amine_primary,3(amine_primary) > 5(amine_primary)
CC(C)(N)C(C)(C)N,9.93,3:7,amine_primary:amine_primary,"1,1,2,2-Tetramethylethylenediamine",3:7,amine_primary:amine_primary,3(amine_primary) > 7(amine_primary)
CC(C)(N)C(C)(C)N,10.1,3:7,amine_primary:amine_primary,"1,1,2,2-Tetramethylethylenediamine",3:7,amine_primary:amine_primary,3(amine_primary) > 7(amine_primary)
CC(C)(N)C(C)(C)N,6.35,3:7,amine_primary:amine_primary,"1,1,2,2-Tetramethylethylenediamine",3:7,amine_primary:amine_primary,3(amine_primary) > 7(amine_primary)
CC(C)(N)C(C)(C)N,6.46,3:7,amine_primary:amine_primary,"1,1,2,2-Tetramethylethylenediamine",3:7,amine_primary:amine_primary,3(amine_primary) > 7(amine_primary)
NCCCN,10.54,0:4,amine_primary:amine_primary,"Trimethylenediamine (1,3-Propylenediamine)",0:4,amine_primary:amine_primary,0(amine_primary) > 4(amine_primary)
NCCCN,10.65,0:4,amine_primary:amine_primary,"Trimethylenediamine (1,3-Propylenediamine)",0:4,amine_primary:amine_primary,0(amine_primary) > 4(amine_primary)
NCCCN,10.77,0:4,amine_primary:amine_primary,"Trimethylenediamine (1,3-Propylenediamine)",0:4,amine_primary:amine_primary,0(amine_primary) > 4(amine_primary)
NCCCN,10.96,0:4,amine_primary:amine_primary,"Trimethylenediamine (1,3-Propylenediamine)",0:4,amine_primary:amine_primary,0(amine_primary) > 4(amine_primary)
NCCCN,11.11,0:4,amine_primary:amine_primary,"Trimethylenediamine (1,3-Propylenediamine)",0:4,amine_primary:amine_primary,0(amine_primary) > 4(amine_primary)
NCCCN,10.93,0:4,amine_primary:amine_primary,"Trimethylenediamine (1,3-Propylenediamine)",0:4,amine_primary:amine_primary,0(amine_primary) > 4(amine_primary)
NCCCN,10.48,0:4,amine_primary:amine_primary,"Trimethylenediamine (1,3-Propylenediamine)",0:4,amine_primary:amine_primary,0(amine_primary) > 4(amine_primary)
NCCCN,8.78,0:4,amine_primary:amine_primary,"Trimethylenediamine (1,3-Propylenediamine)",0:4,amine_primary:amine_primary,0(amine_primary) > 4(amine_primary)
NCCCN,8.94,0:4,amine_primary:amine_primary,"Trimethylenediamine (1,3-Propylenediamine)",0:4,amine_primary:amine_primary,0(amine_primary) > 4(amine_primary)
NCCCN,9.13,0:4,amine_primary:amine_primary,"Trimethylenediamine (1,3-Propylenediamine)",0:4,amine_primary:amine_primary,0(amine_primary) > 4(amine_primary)
NCCCN,9.3,0:4,amine_primary:amine_primary,"Trimethylenediamine (1,3-Propylenediamine)",0:4,amine_primary:amine_primary,0(amine_primary) > 4(amine_primary)
NCCCN,9.47,0:4,amine_primary:amine_primary,"Trimethylenediamine (1,3-Propylenediamine)",0:4,amine_primary:amine_primary,0(amine_primary) > 4(amine_primary)
NCCCN,9.71,0:4,amine_primary:amine_primary,"Trimethylenediamine (1,3-Propylenediamine)",0:4,amine_primary:amine_primary,0(amine_primary) > 4(amine_primary)
NCCCN,8.48,0:4,amine_primary:amine_primary,"Trimethylenediamine (1,3-Propylenediamine)",0:4,amine_primary:amine_primary,0(amine_primary) > 4(amine_primary)
CC(N)CCN,10.55,2:5,amine_primary:amine_primary,"DL-1-Methyltrimethylenediamine (1,3-Butylenediamine)",2:5,amine_primary:amine_primary,2(amine_primary) > 5(amine_primary)
CC(N)CCN,10.69,2:5,amine_primary:amine_primary,"DL-1-Methyltrimethylenediamine (1,3-Butylenediamine)",2:5,amine_primary:amine_primary,2(amine_primary) > 5(amine_primary)
CC(N)CCN,10.81,2:5,amine_primary:amine_primary,"DL-1-Methyltrimethylenediamine (1,3-Butylenediamine)",2:5,amine_primary:amine_primary,2(amine_primary) > 5(amine_primary)
CC(N)CCN,11.06,2:5,amine_primary:amine_primary,"DL-1-Methyltrimethylenediamine (1,3-Butylenediamine)",2:5,amine_primary:amine_primary,2(amine_primary) > 5(amine_primary)
CC(N)CCN,10.5,2:5,amine_primary:amine_primary,"DL-1-Methyltrimethylenediamine (1,3-Butylenediamine)",2:5,amine_primary:amine_primary,2(amine_primary) > 5(amine_primary)
CC(N)CCN,8.68,2:5,amine_primary:amine_primary,"DL-1-Methyltrimethylenediamine (1,3-Butylenediamine)",2:5,amine_primary:amine_primary,2(amine_primary) > 5(amine_primary)
CC(N)CCN,8.91,2:5,amine_primary:amine_primary,"DL-1-Methyltrimethylenediamine (1,3-Butylenediamine)",2:5,amine_primary:amine_primary,2(amine_primary) > 5(amine_primary)
CC(N)CCN,9.1,2:5,amine_primary:amine_primary,"DL-1-Methyltrimethylenediamine (1,3-Butylenediamine)",2:5,amine_primary:amine_primary,2(amine_primary) > 5(amine_primary)
CC(N)CCN,9.37,2:5,amine_primary:amine_primary,"DL-1-Methyltrimethylenediamine (1,3-Butylenediamine)",2:5,amine_primary:amine_primary,2(amine_primary) > 5(amine_primary)
CC(N)CCN,8.43,2:5,amine_primary:amine_primary,"DL-1-Methyltrimethylenediamine (1,3-Butylenediamine)",2:5,amine_primary:amine_primary,2(amine_primary) > 5(amine_primary)
CC(C)(CN)CN,10.22,4:6,amine_primary:amine_primary,"2,2-Dimethyltrimethylenediamine (2,2-Dimethyl-1,3-propylenediamine)",4:6,amine_primary:amine_primary,4(amine_primary) > 6(amine_primary)
CC(C)(CN)CN,8.18,4:6,amine_primary:amine_primary,"2,2-Dimethyltrimethylenediamine (2,2-Dimethyl-1,3-propylenediamine)",4:6,amine_primary:amine_primary,4(amine_primary) > 6(amine_primary)
NCC(=C)CN,10.09,0:5,amine_primary:amine_primary,"2-Methylenetrimethylenediamine (2-Methylene-1,3-propylenediamine)",0:5,amine_primary:amine_primary,0(amine_primary) > 5(amine_primary)
NCC(=C)CN,8.33,0:5,amine_primary:amine_primary,"2-Methylenetrimethylenediamine (2-Methylene-1,3-propylenediamine)",0:5,amine_primary:amine_primary,0(amine_primary) > 5(amine_primary)
NCCCCN,10.72,0:5,amine_primary:amine_primary,"Tetramethylenediamine (1,4-Butylenediamine) (Putrescine)",0:5,amine_primary:amine_primary,0(amine_primary) > 5(amine_primary)
NCCCCN,10.87,0:5,amine_primary:amine_primary,"Tetramethylenediamine (1,4-Butylenediamine) (Putrescine)",0:5,amine_primary:amine_primary,0(amine_primary) > 5(amine_primary)
NCCCCN,11.01,0:5,amine_primary:amine_primary,"Tetramethylenediamine (1,4-Butylenediamine) (Putrescine)",0:5,amine_primary:amine_primary,0(amine_primary) > 5(amine_primary)
NCCCCN,11.37,0:5,amine_primary:amine_primary,"Tetramethylenediamine (1,4-Butylenediamine) (Putrescine)",0:5,amine_primary:amine_primary,0(amine_primary) > 5(amine_primary)
NCCCCN,11.05,0:5,amine_primary:amine_primary,"Tetramethylenediamine (1,4-Butylenediamine) (Putrescine)",0:5,amine_primary:amine_primary,0(amine_primary) > 5(amine_primary)
NCCCCN,10.67,0:5,amine_primary:amine_primary,"Tetramethylenediamine (1,4-Butylenediamine) (Putrescine)",0:5,amine_primary:amine_primary,0(amine_primary) > 5(amine_primary)
NCCCCN,9.46,0:5,amine_primary:amine_primary,"Tetramethylenediamine (1,4-Butylenediamine) (Putrescine)",0:5,amine_primary:amine_primary,0(amine_primary) > 5(amine_primary)
NCCCCN,9.68,0:5,amine_primary:amine_primary,"Tetramethylenediamine (1,4-Butylenediamine) (Putrescine)",0:5,amine_primary:amine_primary,0(amine_primary) > 5(amine_primary)
NCCCCN,9.85,0:5,amine_primary:amine_primary,"Tetramethylenediamine (1,4-Butylenediamine) (Putrescine)",0:5,amine_primary:amine_primary,0(amine_primary) > 5(amine_primary)
NCCCCN,10.25,0:5,amine_primary:amine_primary,"Tetramethylenediamine (1,4-Butylenediamine) (Putrescine)",0:5,amine_primary:amine_primary,0(amine_primary) > 5(amine_primary)
NCCCCN,10.39,0:5,amine_primary:amine_primary,"Tetramethylenediamine (1,4-Butylenediamine) (Putrescine)",0:5,amine_primary:amine_primary,0(amine_primary) > 5(amine_primary)
NCCCCN,9.22,0:5,amine_primary:amine_primary,"Tetramethylenediamine (1,4-Butylenediamine) (Putrescine)",0:5,amine_primary:amine_primary,0(amine_primary) > 5(amine_primary)
NCCCCCN,10.9,0:6,amine_primary:amine_primary,Pentamethylenediamine (Cadaverine),0:6,amine_primary:amine_primary,0(amine_primary) > 6(amine_primary)
NCCCCCN,10.99,0:6,amine_primary:amine_primary,Pentamethylenediamine (Cadaverine),0:6,amine_primary:amine_primary,0(amine_primary) > 6(amine_primary)
NCCCCCN,11.17,0:6,amine_primary:amine_primary,Pentamethylenediamine (Cadaverine),0:6,amine_primary:amine_primary,0(amine_primary) > 6(amine_primary)
NCCCCCN,10.8,0:6,amine_primary:amine_primary,Pentamethylenediamine (Cadaverine),0:6,amine_primary:amine_primary,0(amine_primary) > 6(amine_primary)
NCCCCCN,9.83,0:6,amine_primary:amine_primary,Pentamethylenediamine (Cadaverine),0:6,amine_primary:amine_primary,0(amine_primary) > 6(amine_primary)
NCCCCCN,10.05,0:6,amine_primary:amine_primary,Pentamethylenediamine (Cadaverine),0:6,amine_primary:amine_primary,0(amine_primary) > 6(amine_primary)
NCCCCCN,10.26,0:6,amine_primary:amine_primary,Pentamethylenediamine (Cadaverine),0:6,amine_primary:amine_primary,0(amine_primary) > 6(amine_primary)
NCCCCCN,9.56,0:6,amine_primary:amine_primary,Pentamethylenediamine (Cadaverine),0:6,amine_primary:amine_primary,0(amine_primary) > 6(amine_primary)
NCCCCCCN,10.95,0:7,amine_primary:amine_primary,Hexamethylenediamine,0:7,amine_primary:amine_primary,0(amine_primary) > 7(amine_primary)
NCCCCCCN,11.04,0:7,amine_primary:amine_primary,Hexamethylenediamine,0:7,amine_primary:amine_primary,0(amine_primary) > 7(amine_primary)
NCCCCCCN,11.22,0:7,amine_primary:amine_primary,Hexamethylenediamine,0:7,amine_primary:amine_primary,0(amine_primary) > 7(amine_primary)
NCCCCCCN,10.93,0:7,amine_primary:amine_primary,Hexamethylenediamine,0:7,amine_primary:amine_primary,0(amine_primary) > 7(amine_primary)
NCCCCCCN,10.07,0:7,amine_primary:amine_primary,Hexamethylenediamine,0:7,amine_primary:amine_primary,0(amine_primary) > 7(amine_primary)
NCCCCCCN,10.28,0:7,amine_primary:amine_primary,Hexamethylenediamine,0:7,amine_primary:amine_primary,0(amine_primary) > 7(amine_primary)
NCCCCCCN,10.48,0:7,amine_primary:amine_primary,Hexamethylenediamine,0:7,amine_primary:amine_primary,0(amine_primary) > 7(amine_primary)
NCCCCCCN,9.83,0:7,amine_primary:amine_primary,Hexamethylenediamine,0:7,amine_primary:amine_primary,0(amine_primary) > 7(amine_primary)
NCCCCCCCCN,10.99,0:9,amine_primary:amine_primary,Octamethylenediamine,0:9,amine_primary:amine_primary,0(amine_primary) > 9(amine_primary)
NCCCCCCCCN,11.12,0:9,amine_primary:amine_primary,Octamethylenediamine,0:9,amine_primary:amine_primary,0(amine_primary) > 9(amine_primary)
NCCCCCCCCN,11.28,0:9,amine_primary:amine_primary,Octamethylenediamine,0:9,amine_primary:amine_primary,0(amine_primary) > 9(amine_primary)
NCCCCCCCCN,10.93,0:9,amine_primary:amine_primary,Octamethylenediamine,0:9,amine_primary:amine_primary,0(amine_primary) > 9(amine_primary)
NCCCCCCCCN,10.17,0:9,amine_primary:amine_primary,Octamethylenediamine,0:9,amine_primary:amine_primary,0(amine_primary) > 9(amine_primary)
NCCCCCCCCN,10.42,0:9,amine_primary:amine_primary,Octamethylenediamine,0:9,amine_primary:amine_primary,0(amine_primary) > 9(amine_primary)
NCCCCCCCCN,10.55,0:9,amine_primary:amine_primary,Octamethylenediamine,0:9,amine_primary:amine_primary,0(amine_primary) > 9(amine_primary)
NCCCCCCCCN,9.95,0:9,amine_primary:amine_primary,Octamethylenediamine,0:9,amine_primary:amine_primary,0(amine_primary) > 9(amine_primary)
NC1(CCCCC1)C2(N)CCCCC2,10.41,0:8,amine_primary:amine_primary,"Bicyclohexyl-1,1'-diamine",0:8,amine_primary:amine_primary,0(amine_primary) > 8(amine_primary)
NC1(CCCCC1)C2(N)CCCCC2,5.62,0:8,amine_primary:amine_primary,"Bicyclohexyl-1,1'-diamine",0:8,amine_primary:amine_primary,0(amine_primary) > 8(amine_primary)
NCC(O)CN,9.56,0:5,amine_primary:amine_primary,"1,3-Diamino-2-propanol (2-Hydroxytrimethylenediamine)",0:5,amine_primary:amine_primary,0(amine_primary) > 5(amine_primary)
NCC(O)CN,9.68,0:5,amine_primary:amine_primary,"1,3-Diamino-2-propanol (2-Hydroxytrimethylenediamine)",0:5,amine_primary:amine_primary,0(amine_primary) > 5(amine_primary)
NCC(O)CN,9.82,0:5,amine_primary:amine_primary,"1,3-Diamino-2-propanol (2-Hydroxytrimethylenediamine)",0:5,amine_primary:amine_primary,0(amine_primary) > 5(amine_primary)
NCC(O)CN,10.08,0:5,amine_primary:amine_primary,"1,3-Diamino-2-propanol (2-Hydroxytrimethylenediamine)",0:5,amine_primary:amine_primary,0(amine_primary) > 5(amine_primary)
NCC(O)CN,10.4,0:5,amine_primary:amine_primary,"1,3-Diamino-2-propanol (2-Hydroxytrimethylenediamine)",0:5,amine_primary:amine_primary,0(amine_primary) > 5(amine_primary)
NCC(O)CN,9.55,0:5,amine_primary:amine_primary,"1,3-Diamino-2-propanol (2-Hydroxytrimethylenediamine)",0:5,amine_primary:amine_primary,0(amine_primary) > 5(amine_primary)
NCC(O)CN,8.02,0:5,amine_primary:amine_primary,"1,3-Diamino-2-propanol (2-Hydroxytrimethylenediamine)",0:5,amine_primary:amine_primary,0(amine_primary) > 5(amine_primary)
NCC(O)CN,8.19,0:5,amine_primary:amine_primary,"1,3-Diamino-2-propanol (2-Hydroxytrimethylenediamine)",0:5,amine_primary:amine_primary,0(amine_primary) > 5(amine_primary)
NCC(O)CN,8.36,0:5,amine_primary:amine_primary,"1,3-Diamino-2-propanol (2-Hydroxytrimethylenediamine)",0:5,amine_primary:amine_primary,0(amine_primary) > 5(amine_primary)
NCC(O)CN,8.62,0:5,amine_primary:amine_primary,"1,3-Diamino-2-propanol (2-Hydroxytrimethylenediamine)",0:5,amine_primary:amine_primary,0(amine_primary) > 5(amine_primary)
NCC(O)CN,8.89,0:5,amine_primary:amine_primary,"1,3-Diamino-2-propanol (2-Hydroxytrimethylenediamine)",0:5,amine_primary:amine_primary,0(amine_primary) > 5(amine_primary)
NCC(O)CN,7.78,0:5,amine_primary:amine_primary,"1,3-Diamino-2-propanol (2-Hydroxytrimethylenediamine)",0:5,amine_primary:amine_primary,0(amine_primary) > 5(amine_primary)
COC(=O)C(N)CCCN,8.32,5:9,amine_primary:amine_primary,"DL-2,5-Diaminopentanoic acid methyl ester (DL-Ornithine methyl ester)",5:9,amine_primary:amine_primary,5(amine_primary) > 9(amine_primary)
COC(=O)C(N)CCCN,6.73,5:9,amine_primary:amine_primary,"DL-2,5-Diaminopentanoic acid methyl ester (DL-Ornithine methyl ester)",5:9,amine_primary:amine_primary,5(amine_primary) > 9(amine_primary)
COC(=O)C(N)CCCCN,10.25,5:10,amine_primary:amine_primary,"DL-2,6-Diaminohexanoic acid methyl ester (DL-Lysine methyl ester)",5:10,amine_primary:amine_primary,5(amine_primary) > 10(amine_primary)
COC(=O)C(N)CCCCN,9.9,5:10,amine_primary:amine_primary,"DL-2,6-Diaminohexanoic acid methyl ester (DL-Lysine methyl ester)",5:10,amine_primary:amine_primary,5(amine_primary) > 10(amine_primary)
COC(=O)C(N)CCCCN,7.19,5:10,amine_primary:amine_primary,"DL-2,6-Diaminohexanoic acid methyl ester (DL-Lysine methyl ester)",5:10,amine_primary:amine_primary,5(amine_primary) > 10(amine_primary)
COC(=O)C(N)CCCCN,6.89,5:10,amine_primary:amine_primary,"DL-2,6-Diaminohexanoic acid methyl ester (DL-Lysine methyl ester)",5:10,amine_primary:amine_primary,5(amine_primary) > 10(amine_primary)