SMILES,pKa,Dissociable_Atoms,Functional_Group,Name
CN1C=CC=C(O)C1=O,8.89,6,phenol,"1-Methyl-3-hydroxy-1,2-dihydropyridin-2-one"
CCCCN1C=CC=C(O)C1=O,9.06,9,phenol,"1-Butyl-2,3-dihydroxypyridine (1-Butyl-3-hydroxy-1,2-dihydropyridin-2-one)"
CC1=C(O)C(=O)C=CN1,9.8,3:8,phenol:amine_secondary,"2-Methyl-3,4-dihydroxypyridine (2-Methyl-3-hydroxy-1,4-dihydropyridin-4-one)"
CC1=C(O)C(=O)C=CN1,9.58,3:8,phenol:amine_secondary,"2-Methyl-3,4-dihydroxypyridine (2-Methyl-3-hydroxy-1,4-dihydropyridin-4-one)"
CC1=C(O)C(=O)C=CN1,10.1,3:8,phenol:amine_secondary,"2-Methyl-3,4-dihydroxypyridine (2-Methyl-3-hydroxy-1,4-dihydropyridin-4-one)"
CC1=C(O)C(=O)C=CN1,3.65,3:8,phenol:amine_secondary,"2-Methyl-3,4-dihydroxypyridine (2-Methyl-3-hydroxy-1,4-dihydropyridin-4-one)"
CC1=C(O)C(=O)C=CN1,3.74,3:8,phenol:amine_secondary,"2-Methyl-3,4-dihydroxypyridine (2-Methyl-3-hydroxy-1,4-dihydropyridin-4-one)"
CC1=C(O)C(=O)C=CN1,3.62,3:8,phenol:amine_secondary,"2-Methyl-3,4-dihydroxypyridine (2-Methyl-3-hydroxy-1,4-dihydropyridin-4-one)"
CN1C=CC(=O)C(=C1C)O,9.81,1:8,tertiary_amine:hydroxyl_group,"1,2-Dimethyl-3,4-dihydroxypyridine (1,2-Dimethyl-3-hydroxy-1,4-dihydropyridin-4-one)"
CN1C=CC(=O)C(=C1C)O,9.64,1:8,tertiary_amine:hydroxyl_group,"1,2-Dimethyl-3,4-dihydroxypyridine (1,2-Dimethyl-3-hydroxy-1,4-dihydropyridin-4-one)"
CN1C=CC(=O)C(=C1C)O,10.16,1:8,tertiary_amine:hydroxyl_group,"1,2-Dimethyl-3,4-dihydroxypyridine (1,2-Dimethyl-3-hydroxy-1,4-dihydropyridin-4-one)"
CN1C=CC(=O)C(=C1C)O,3.66,1:8,tertiary_amine:hydroxyl_group,"1,2-Dimethyl-3,4-dihydroxypyridine (1,2-Dimethyl-3-hydroxy-1,4-dihydropyridin-4-one)"
CN1C=CC(=O)C(=C1C)O,3.73,1:8,tertiary_amine:hydroxyl_group,"1,2-Dimethyl-3,4-dihydroxypyridine (1,2-Dimethyl-3-hydroxy-1,4-dihydropyridin-4-one)"
CN1C=CC(=O)C(=C1C)O,3.69,1:8,tertiary_amine:hydroxyl_group,"1,2-Dimethyl-3,4-dihydroxypyridine (1,2-Dimethyl-3-hydroxy-1,4-dihydropyridin-4-one)"
CCN1C=CC(=O)C(=C1CC)O,9.93,2:11,tertiary_amine:hydroxyl_group,"1,2-Diethyl-3,4-dihydroxypyridine (1,2-Diethyl-3-hydroxy-1,4-dihydropyridin-4-one)"
CCN1C=CC(=O)C(=C1CC)O,3.81,2:11,tertiary_amine:hydroxyl_group,"1,2-Diethyl-3,4-dihydroxypyridine (1,2-Diethyl-3-hydroxy-1,4-dihydropyridin-4-one)"
CCN1C=CC(=O)C(=C1C)O,9.81,2:9,tertiary_amine:hydroxyl_group,"1-Ethyl-2-methyl-3,4-dihydroxypyridine (1-Ethyl-2-methyl-3-hydroxy-1,4-dihydropyridin-4-one)"
CCN1C=CC(=O)C(=C1C)O,3.64,2:9,tertiary_amine:hydroxyl_group,"1-Ethyl-2-methyl-3,4-dihydroxypyridine (1-Ethyl-2-methyl-3-hydroxy-1,4-dihydropyridin-4-one)"
CCCCCCN1C=CC(=O)C(=C1C)O,9.92,6:13,tertiary_amine:hydroxyl_group,"1-Hexyl-2-methyl-3,4-dihydroxypyridine (1-Hexyl-2-methyl-3-hydroxy-1,4-dihydropyridin-4-one)"
CCCCCCN1C=CC(=O)C(=C1C)O,3.59,6:13,tertiary_amine:hydroxyl_group,"1-Hexyl-2-methyl-3,4-dihydroxypyridine (1-Hexyl-2-methyl-3-hydroxy-1,4-dihydropyridin-4-one)"
Cc1ccc(O)cn1,8.96,10,heterocyclic_nitrogen,5-Hydroxy-2-methylpyridine
Cc1ccc(O)cn1,5.44,10,heterocyclic_nitrogen,5-Hydroxy-2-methylpyridine
OCc1ncccc1O,8.6,0:8,alcohol:phenol,3-Hydroxy-2-hydroxymethylpyridine
OCc1ncccc1O,9.07,0:8,alcohol:phenol,3-Hydroxy-2-hydroxymethylpyridine
OCc1ncccc1O,4.74,0:8,alcohol:phenol,3-Hydroxy-2-hydroxymethylpyridine
OCc1ncccc1O,5.0,0:8,alcohol:phenol,3-Hydroxy-2-hydroxymethylpyridine
OCc1ccncc1O,8.95,0:8,alcohol:phenol,3-Hydroxy-4-hydroxymethylpyridine
OCc1ccncc1O,5.0,0:8,alcohol:phenol,3-Hydroxy-4-hydroxymethylpyridine
Cc1ncc(CO)c(C)c1O,9.34,6:10,alcohol:phenol,"3-Hydroxy-4-hydroxymethyl-2,5-dimethylpyridine (Deoxypyridoxine)"
Cc1ncc(CO)c(C)c1O,5.36,6:10,alcohol:phenol,"3-Hydroxy-4-hydroxymethyl-2,5-dimethylpyridine (Deoxypyridoxine)"
Cc1ncc(CO)c(CO)c1O,8.81,11:6,phenol:alcohol,"3-Hydroxy-4,5-bis(hydroxymethyl)-2-methylpyridine (Pyridoxine)"
Cc1ncc(CO)c(CO)c1O,8.66,11:6,phenol:alcohol,"3-Hydroxy-4,5-bis(hydroxymethyl)-2-methylpyridine (Pyridoxine)"
Cc1ncc(CO)c(CO)c1O,8.94,11:6,phenol:alcohol,"3-Hydroxy-4,5-bis(hydroxymethyl)-2-methylpyridine (Pyridoxine)"
Cc1ncc(CO)c(CO)c1O,9.04,11:6,phenol:alcohol,"3-Hydroxy-4,5-bis(hydroxymethyl)-2-methylpyridine (Pyridoxine)"
Cc1ncc(CO)c(CO)c1O,4.85,11:6,phenol:alcohol,"3-Hydroxy-4,5-bis(hydroxymethyl)-2-methylpyridine (Pyridoxine)"
Cc1ncc(CO)c(CO)c1O,4.78,11:6,phenol:alcohol,"3-Hydroxy-4,5-bis(hydroxymethyl)-2-methylpyridine (Pyridoxine)"
Cc1ncc(CO)c(CO)c1O,4.86,11:6,phenol:alcohol,"3-Hydroxy-4,5-bis(hydroxymethyl)-2-methylpyridine (Pyridoxine)"
Cc1ncc(CO)c(CO)c1O,4.84,11:6,phenol:alcohol,"3-Hydroxy-4,5-bis(hydroxymethyl)-2-methylpyridine (Pyridoxine)"
O=Cc1ccccn1,3.8,7,pyridine_nitrogen,Pyridine-2-carboxaldehyde
O=Cc1cccnc1,3.8,6,pyridine_nitrogen,Pyridine-3-carboxaldehyde
O=Cc1ccncc1,4.77,5,pyridine_nitrogen,Pyridine-4-carboxaldehyde
COc1cccnc1C=O,2.89,6,pyridine_nitrogen,3-Methoxypyridine-2-carboxaldehyde
COc1cnccc1C=O,4.45,3,pyridine_nitrogen,3-Methoxypyridine-4-carboxaldehyde
Oc1cccnc1C=O,6.95,5,pyridine_nitrogen,3-Hydroxypyridine-2-carboxaldehyde
Oc1cccnc1C=O,3.4,5,pyridine_nitrogen,3-Hydroxypyridine-2-carboxaldehyde
Oc1cnccc1C=O,6.7,0:2,phenol:pyridine_nitrogen,3-Hydroxypyridine-4-carboxaldehyde
Oc1cnccc1C=O,6.77,0:2,phenol:pyridine_nitrogen,3-Hydroxypyridine-4-carboxaldehyde
Oc1cnccc1C=O,4.04,0:2,phenol:pyridine_nitrogen,3-Hydroxypyridine-4-carboxaldehyde
Oc1cnccc1C=O,4.05,0:2,phenol:pyridine_nitrogen,3-Hydroxypyridine-4-carboxaldehyde
Cc1ncc(CO)c(C=O)c1O,8.53,6:11,alcohol:phenol,3-Hydroxy-5-hydroxymethyl-2-methylpyridine-4-carboxaldehyde (Pyridoxal)
Cc1ncc(CO)c(C=O)c1O,8.39,6:11,alcohol:phenol,3-Hydroxy-5-hydroxymethyl-2-methylpyridine-4-carboxaldehyde (Pyridoxal)
Cc1ncc(CO)c(C=O)c1O,8.28,6:11,alcohol:phenol,3-Hydroxy-5-hydroxymethyl-2-methylpyridine-4-carboxaldehyde (Pyridoxal)
Cc1ncc(CO)c(C=O)c1O,4.1,6:11,alcohol:phenol,3-Hydroxy-5-hydroxymethyl-2-methylpyridine-4-carboxaldehyde (Pyridoxal)
Cc1ncc(CO)c(C=O)c1O,4.15,6:11,alcohol:phenol,3-Hydroxy-5-hydroxymethyl-2-methylpyridine-4-carboxaldehyde (Pyridoxal)
Cc1ncc(CO)c(C=O)c1O,3.92,6:11,alcohol:phenol,3-Hydroxy-5-hydroxymethyl-2-methylpyridine-4-carboxaldehyde (Pyridoxal)
Cc1ncc(CO)c(CN)c1O,10.6,6:9:11,alcohol:amine_primary:phenol,4-Aminomethyl-3-hydroxy-5-hydroxymethyl-2-methylpyridine (Pyridoxamine)
Cc1ncc(CO)c(CN)c1O,8.05,6:9:11,alcohol:amine_primary:phenol,4-Aminomethyl-3-hydroxy-5-hydroxymethyl-2-methylpyridine (Pyridoxamine)
Cc1ncc(CO)c(CN)c1O,3.38,6:9:11,alcohol:amine_primary:phenol,4-Aminomethyl-3-hydroxy-5-hydroxymethyl-2-methylpyridine (Pyridoxamine)
OCc1ccccn1,4.9,7,pyridine_nitrogen,2-(Hydroxymethyl)pyridine
OCc1ccccn1,4.95,7,pyridine_nitrogen,2-(Hydroxymethyl)pyridine
OCc1ccccn1,5.09,7,pyridine_nitrogen,2-(Hydroxymethyl)pyridine
OCc1ccccn1,5.25,7,pyridine_nitrogen,2-(Hydroxymethyl)pyridine
OCc1ccccn1,4.86,7,pyridine_nitrogen,2-(Hydroxymethyl)pyridine
Cc1cccc(CO)n1,5.43,11,ring_nitrogen,2-(Hydroxymethyl)-6-methylpyridine
OCCc1ccccn1,5.37,8,pyridine_nitrogen,2-(2-Hydroxyethyl)pyridine
OCCc1ccccn1,5.31,8,pyridine_nitrogen,2-(2-Hydroxyethyl)pyridine
Cc1cccc(CCO)n1,6.1,12,ring_nitrogen,2-(2-Hydroxyethyl)-6-methylpyridine
CC(O)Cc1ccccn1,5.48,9,pyridine_nitrogen,2-(2-Hydroxypropyl)pyridine
OC(Cc1ccccn1)c2ccccc2,5.2,8,pyridine_nitrogen,2-(2-Hydroxy-2-phenylethyl)pyridine
OCCCc1ccccn1,5.71,9,pyridine_nitrogen,2-(3-Hydroxypropyl)pyridine
OCCCc1ccccn1,5.61,9,pyridine_nitrogen,2-(3-Hydroxypropyl)pyridine
OCCCCc1ccccn1,5.83,10,pyridine_nitrogen,2-(4-Hydroxybutyl)pyridine
OCCCCCc1ccccn1,5.93,11,pyridine_nitrogen,2-(5-Hydroxypentyl)pyridine
OCc1cccnc1,5.0,6,pyridine_nitrogen,3-(Hydroxymethyl)pyridine
OCc1cccnc1,5.08,6,pyridine_nitrogen,3-(Hydroxymethyl)pyridine
OCc1cccnc1,5.1,6,pyridine_nitrogen,3-(Hydroxymethyl)pyridine
OCc1cccnc1,4.9,6,pyridine_nitrogen,3-(Hydroxymethyl)pyridine
OCCc1cccnc1,5.38,7,pyridine_nitrogen,3-(2-Hydroxyethyl)pyridine
OCCCc1cccnc1,5.57,8,pyridine_nitrogen,3-(3-Hydroxypropyl)pyridine
OCCCc1cccnc1,5.65,8,pyridine_nitrogen,3-(3-Hydroxypropyl)pyridine
OCCCc1cccnc1,5.47,8,pyridine_nitrogen,3-(3-Hydroxypropyl)pyridine
OCCCCc1cccnc1,5.7,9,pyridine_nitrogen,3-(4-Hydroxybutyl)pyridine
OCCCCCc1cccnc1,5.72,10,pyridine_nitrogen,3-(5-Hydroxypentyl)pyridine
OCc1ccncc1,5.41,5,pyridine_nitrogen,4-(Hydroxymethyl)pyridine
OCc1ccncc1,5.53,5,pyridine_nitrogen,4-(Hydroxymethyl)pyridine
OCc1ccncc1,5.33,5,pyridine_nitrogen,4-(Hydroxymethyl)pyridine
OCCc1ccncc1,5.68,6,pyridine_nitrogen,4-(2-Hydroxyethyl)pyridine
OCCc1ccncc1,5.6,6,pyridine_nitrogen,4-(2-Hydroxyethyl)pyridine
OCCCc1ccncc1,5.9,7,pyridine_nitrogen,4-(3-Hydroxypropyl)pyridine
OCCCc1ccncc1,5.84,7,pyridine_nitrogen,4-(3-Hydroxypropyl)pyridine
OCCCCc1ccncc1,6.01,8,pyridine_nitrogen,4-(4-Hydroxybutyl)pyridine
OCCCCCc1ccncc1,6.04,9,pyridine_nitrogen,4-(5-Hydroxypentyl)pyridine
OCc1cccc(CO)n1,4.39,12,ring_nitrogen,"2,6-Bis(hydroxymethyl)pyridine"
COc1cccnc1,4.91,6,pyridine_nitrogen,3-Methoxypyridine
COc1cccnc1,4.88,6,pyridine_nitrogen,3-Methoxypyridine
COc1ccncc1,6.47,5,pyridine_nitrogen,4-Methoxypyridine
COc1cc(C)nc(C)c1,8.04,4,pyridine_nitrogen,"2,6-Dimethyl-4-methoxypyridine"
O=Cc1ccccn1,3.92,7,pyridine_nitrogen,Pyridine-2-carboxaldehyde
O=Cc1cccnc1,3.7,6,pyridine_nitrogen,Pyridine-3-carboxaldehyde
O=Cc1ccncc1,4.53,5,pyridine_nitrogen,Pyridine-4-carboxaldehyde
O=Cc1cccc(C=O)n1,2.13,14,ring_nitrogen,"Pyridine-2,6-dicarboxaldehyde"
CC(=O)c1ccccn1,2.66,8,pyridine_nitrogen,2-Acetylpyridine
CC(=O)c1cccnc1,3.48,7,pyridine_nitrogen,3-Acetylpyridine
CC(=O)c1cccnc1,3.28,7,pyridine_nitrogen,3-Acetylpyridine
CC(=O)c1ccncc1,3.7,6,pyridine_nitrogen,4-Acetylpyridine
CC(=O)c1ccncc1,3.51,6,pyridine_nitrogen,4-Acetylpyridine
CC(=O)c1c(C)cc(C)nc1C,5.91,6,pyridine_nitrogen,"3-Acetyl-2,4,6-trimethylpyridine"
COC(=O)c1ccccn1,2.21,9,pyridine_nitrogen,Pyridine-2-carboxylic acid methyl ester (Picolinic acid methyl ester)
COC(=O)c1cccnc1,3.13,8,pyridine_nitrogen,Pyridine-3-carboxylic acid methyl ester (Nicotinic acid methyl ester)
COC(=O)c1ccncc1,3.26,7,pyridine_nitrogen,Pyridine-4-carboxylic acid methyl ester (Isonicotinic acid methyl ester)
CCOC(=O)c1cc(C)nc(C)c1,5.27,6,pyridine_nitrogen,"2,6-Dimethylpyridine-4-carboxylic acid ethyl ester"
NC(=O)c1ccccn1,1.8,8,pyridine_nitrogen,Pyridine-2-carboxylic acid amide (Picolinamide)
NC(=O)c1cccnc1,3.31,7,pyridine_nitrogen,Pyridine-3-carboxylic acid amide (Nicotinamide)
NC(=O)c1cccnc1,3.41,7,pyridine_nitrogen,Pyridine-3-carboxylic acid amide (Nicotinamide)
NC(=O)c1cccnc1,3.35,7,pyridine_nitrogen,Pyridine-3-carboxylic acid amide (Nicotinamide)
CNC(=O)c1cccnc1,3.45,8,pyridine_nitrogen,Pyridine-3-carboxylic acid methylamide
OCNC(=O)c1cccnc1,3.41,9,pyridine_nitrogen,Pyridine-3-carboxylic acid hydroxymethylamide
NC(=O)c1ccncc1,3.67,6,pyridine_nitrogen,Pyridine-4-carboxylic acid amide (Isonicotinamide)
NC(=O)c1ccncc1,3.68,6,pyridine_nitrogen,Pyridine-4-carboxylic acid amide (Isonicotinamide)
NC(=O)c1ccncc1,3.61,6,pyridine_nitrogen,Pyridine-4-carboxylic acid amide (Isonicotinamide)
NC(=O)Cc1ccccn1,4.34,9,pyridine_nitrogen,2-Pyridylacetic acid amide
NC(=O)Cc1cccnc1,4.72,8,pyridine_nitrogen,3-Pyridylacetic acid amide
NC(=O)Cc1ccncc1,5.08,7,pyridine_nitrogen,4-Pyridylacetic acid amide
NC(=O)CCc1ccccn1,5.09,10,pyridine_nitrogen,3-(2-Pyridyl)propanoic acid amide
NC(=O)CCc1cccnc1,5.21,9,pyridine_nitrogen,3-(3-Pyridyl)propanoic acid amide
NC(=O)CCc1ccncc1,5.58,8,pyridine_nitrogen,3-(4-Pyridyl)propanoic acid amide
NC(=O)CCCc1ccccn1,5.48,11,pyridine_nitrogen,4-(2-Pyridyl)butanoic acid amide
NC(=O)CCCc1cccnc1,5.33,10,pyridine_nitrogen,4-(3-Pyridyl)butanoic acid amide
NC(=O)CCCc1ccncc1,5.64,9,pyridine_nitrogen,4-(4-Pyridyl)butanoic acid amide
NC(=O)CCCCc1ccccn1,5.73,12,pyridine_nitrogen,5-(2-Pyridyl)pentanoic acid amide
NC(=O)CCCCc1cccnc1,5.6,11,pyridine_nitrogen,5-(3-Pyridyl)pentanoic acid amide
NC(=O)CCCCc1ccncc1,5.92,10,pyridine_nitrogen,5-(4-Pyridyl)pentanoic acid amide
CC(=O)Nc1ccccn1,4.15,9,pyridine_nitrogen,2-(Acetamido)pyridine
CC(=O)Nc1cccnc1,4.57,8,pyridine_nitrogen,3-(Acetamido)pyridine
NNC(=O)c1ccncc1,10.47,7,pyridine_nitrogen,Pyridine-4-carboxylic acid hydrazide (Isonicotinoylhydrazide)
NNC(=O)c1ccncc1,10.68,7,pyridine_nitrogen,Pyridine-4-carboxylic acid hydrazide (Isonicotinoylhydrazide)
NNC(=O)c1ccncc1,10.66,7,pyridine_nitrogen,Pyridine-4-carboxylic acid hydrazide (Isonicotinoylhydrazide)
NNC(=O)c1ccncc1,3.53,7,pyridine_nitrogen,Pyridine-4-carboxylic acid hydrazide (Isonicotinoylhydrazide)
NNC(=O)c1ccncc1,3.66,7,pyridine_nitrogen,Pyridine-4-carboxylic acid hydrazide (Isonicotinoylhydrazide)
NNC(=O)c1ccncc1,3.78,7,pyridine_nitrogen,Pyridine-4-carboxylic acid hydrazide (Isonicotinoylhydrazide)
NNC(=O)c1ccncc1,1.8,7,pyridine_nitrogen,Pyridine-4-carboxylic acid hydrazide (Isonicotinoylhydrazide)
NNC(=O)c1ccncc1,1.9,7,pyridine_nitrogen,Pyridine-4-carboxylic acid hydrazide (Isonicotinoylhydrazide)
NNC(=O)c1ccncc1,2.0,7,pyridine_nitrogen,Pyridine-4-carboxylic acid hydrazide (Isonicotinoylhydrazide)
NC(=O)C(=O)NCc1ccccn1,4.2,12,pyridine_nitrogen,N-(2-Pyridylmethyl)oxamide
ONC(=O)c1cccnc1,7.99,0:1,alcohol:amine_secondary,Pyridine-3-hydroxamic acid
ONC(=O)c1cccnc1,3.19,0:1,alcohol:amine_secondary,Pyridine-3-hydroxamic acid
ON=Cc1ccccn1,9.99,8,pyridine_nitrogen,Pyridine-2-carboxaldehyde oxime
ON=Cc1ccccn1,9.89,8,pyridine_nitrogen,Pyridine-2-carboxaldehyde oxime
ON=Cc1ccccn1,9.92,8,pyridine_nitrogen,Pyridine-2-carboxaldehyde oxime
ON=Cc1ccccn1,10.18,8,pyridine_nitrogen,Pyridine-2-carboxaldehyde oxime
ON=Cc1ccccn1,3.56,8,pyridine_nitrogen,Pyridine-2-carboxaldehyde oxime
ON=Cc1ccccn1,3.62,8,pyridine_nitrogen,Pyridine-2-carboxaldehyde oxime
ON=Cc1ccccn1,3.87,8,pyridine_nitrogen,Pyridine-2-carboxaldehyde oxime
ON=Cc1ccccn1,3.57,8,pyridine_nitrogen,Pyridine-2-carboxaldehyde oxime
CC(=NO)c1ccccn1,10.87,9,pyridine_nitrogen,1-(2-Pyridyl)ethanone oxime
CC(=NO)c1ccccn1,3.97,9,pyridine_nitrogen,1-(2-Pyridyl)ethanone oxime
Cc1cccc(C=NO)n1,9.94,13,ring_nitrogen,6-Methylpyridine-2-carboxaldehyde oxime
Cc1cccc(C=NO)n1,4.26,13,ring_nitrogen,6-Methylpyridine-2-carboxaldehyde oxime
ON=Cc1cccnc1,10.15,7,pyridine_nitrogen,Pyridine-3-carboxaldehyde oxime
ON=Cc1cccnc1,10.32,7,pyridine_nitrogen,Pyridine-3-carboxaldehyde oxime
ON=Cc1cccnc1,10.37,7,pyridine_nitrogen,Pyridine-3-carboxaldehyde oxime
ON=Cc1cccnc1,4.14,7,pyridine_nitrogen,Pyridine-3-carboxaldehyde oxime
ON=Cc1cccnc1,3.94,7,pyridine_nitrogen,Pyridine-3-carboxaldehyde oxime
ON=Cc1ccncc1,9.91,6,pyridine_nitrogen,Pyridine-4-carboxaldehyde oxime
ON=Cc1ccncc1,4.58,6,pyridine_nitrogen,Pyridine-4-carboxaldehyde oxime
ON=Cc1cccc(C=NO)n1,10.54,16,ring_nitrogen,"Pyridine-2,6-dicarboxaldehyde dioxime"
ON=Cc1cccc(C=NO)n1,10.21,16,ring_nitrogen,"Pyridine-2,6-dicarboxaldehyde dioxime"
ON=Cc1cccc(C=NO)n1,10.88,16,ring_nitrogen,"Pyridine-2,6-dicarboxaldehyde dioxime"
ON=Cc1cccc(C=NO)n1,9.91,16,ring_nitrogen,"Pyridine-2,6-dicarboxaldehyde dioxime"
ON=Cc1cccc(C=NO)n1,9.47,16,ring_nitrogen,"Pyridine-2,6-dicarboxaldehyde dioxime"
ON=Cc1cccc(C=NO)n1,10.08,16,ring_nitrogen,"Pyridine-2,6-dicarboxaldehyde dioxime"
ON=Cc1cccc(C=NO)n1,2.18,16,ring_nitrogen,"Pyridine-2,6-dicarboxaldehyde dioxime"
[O-][n+]1ccccc1S,4.43,7,thiol,2-Mercaptopyridine-N-oxide
C[S](=O)(=O)NCc1ccccn1,11.22,11,pyridine_nitrogen,2-(Methylsulfonamidomethyl)pyridine
C[S](=O)(=O)NCc1ccccn1,4.3,11,pyridine_nitrogen,2-(Methylsulfonamidomethyl)pyridine
CSCc1ccccn1,4.53,8,pyridine_nitrogen,2-(Methylthiomethyl)pyridine
CSCc1ccccn1,4.72,8,pyridine_nitrogen,2-(Methylthiomethyl)pyridine
CCSCc1ccccn1,4.72,9,pyridine_nitrogen,2-[Ethylthiomethyl]pyridine
CSCCc1ccccn1,5.33,9,pyridine_nitrogen,2-[2-(Methylthio)ethyl]pyridine
CCSCCc1ccccn1,5.33,10,pyridine_nitrogen,2-[2-(Ethylthio)ethyl]pyridine
OCCSCc1ccccn1,4.61,10,pyridine_nitrogen,2-[2-Hydroxyethylthiomethyl]pyridine
OCCSCCc1ccccn1,5.28,11,pyridine_nitrogen,2-[2-(2-Hydroxyethylthio)ethyl]pyridine
NCCSCc1ccccn1,9.28,10,pyridine_nitrogen,2-[2-Aminoethylthiomethyl]pyridine
NCCSCc1ccccn1,4.21,10,pyridine_nitrogen,2-[2-Aminoethylthiomethyl]pyridine
NCCCSCc1ccccn1,9.97,11,pyridine_nitrogen,2-[3-Aminopropylthiomethyl]pyridine
NCCCSCc1ccccn1,4.46,11,pyridine_nitrogen,2-[3-Aminopropylthiomethyl]pyridine
NCCSCCc1ccccn1,9.35,11,pyridine_nitrogen,2-[2-(2-Aminoethylthio)ethyl]pyridine
NCCSCCc1ccccn1,5.12,11,pyridine_nitrogen,2-[2-(2-Aminoethylthio)ethyl]pyridine
NCCCSCCc1ccccn1,10.03,12,pyridine_nitrogen,2-[2-(3-Aminopropylthio)ethyl]pyridine
NCCCSCCc1ccccn1,5.19,12,pyridine_nitrogen,2-[2-(3-Aminopropylthio)ethyl]pyridine
s1cccc1c2ccccn2,3.69,11,pyridine_nitrogen,2-(2-Thienyl)pyridine
s1cccc1c2cccnc2,4.41,9,pyridine_nitrogen,3-(2-Thienyl)pyridine
s1cccc1c2ccncc2,5.48,8,pyridine_nitrogen,4-(2-Thienyl)pyridine
s1ccc(c1)c2ccccn2,4.67,10,pyridine_nitrogen,2-(3-Thienyl)pyridine
s1ccc(c1)c2cccnc2,4.81,9,pyridine_nitrogen,3-(3-Thienyl)pyridine
s1ccc(c1)c2ccncc2,5.6,8,pyridine_nitrogen,4-(3-Thienyl)pyridine
s1ccnc1c2ccccn2,2.17,10,pyridine_nitrogen,"2-(2-Pyridyl)-1,3-thiazole"
s1ccnc1c2ccccn2,2.15,10,pyridine_nitrogen,"2-(2-Pyridyl)-1,3-thiazole"
s1cnc(c1)c2ccccn2,4.05,10,pyridine_nitrogen,"4-(2-Pyridyl)-1,3-thiazole"
s1cncc1c2ccccn2,2.68,10,pyridine_nitrogen,"5-(2-Pyridyl)-1,3-thiazole"
Nc1ccccn1,6.78,6,pyridine_nitrogen,2-Aminopyridine
Nc1ccccn1,6.84,6,pyridine_nitrogen,2-Aminopyridine
Nc1ccccn1,6.93,6,pyridine_nitrogen,2-Aminopyridine
Nc1ccccn1,6.739,6,pyridine_nitrogen,2-Aminopyridine
Cc1cccnc1N,7.08,5,pyridine_nitrogen,2-Amino-3-methylpyridine
Cc1ccnc(N)c1,7.47,6,aniline,2-Amino-4-methylpyridine
Cc1ccc(N)nc1,7.22,5,aniline,2-Amino-5-methylpyridine
Nc1cccc[n+]1[O-],2.46,0,aniline,2-Aminopyridine 1-oxide
Nc1cccc[n+]1[O-],2.48,0,aniline,2-Aminopyridine 1-oxide
Nc1cccnc1,6.05,5,pyridine_nitrogen,3-Aminopyridine
Nc1cccnc1,6.16,5,pyridine_nitrogen,3-Aminopyridine
Nc1cccnc1,6.02,5,pyridine_nitrogen,3-Aminopyridine
Nc1ccncc1,9.17,4,pyridine_nitrogen,4-Aminopyridine
Nc1ccncc1,9.25,4,pyridine_nitrogen,4-Aminopyridine
Nc1ccncc1,9.33,4,pyridine_nitrogen,4-Aminopyridine
Nc1ccncc1,9.114,4,pyridine_nitrogen,4-Aminopyridine
NCc1ccccn1,8.65,7,pyridine_nitrogen,2-(Aminomethyl)pyridine (2-Picolylamine)
NCc1ccccn1,8.79,7,pyridine_nitrogen,2-(Aminomethyl)pyridine (2-Picolylamine)
NCc1ccccn1,8.91,7,pyridine_nitrogen,2-(Aminomethyl)pyridine (2-Picolylamine)
NCc1ccccn1,2.03,7,pyridine_nitrogen,2-(Aminomethyl)pyridine (2-Picolylamine)
NCc1ccccn1,2.31,7,pyridine_nitrogen,2-(Aminomethyl)pyridine (2-Picolylamine)
NCc1ccccn1,2.46,7,pyridine_nitrogen,2-(Aminomethyl)pyridine (2-Picolylamine)
NCc1ccccn1,1.96,7,pyridine_nitrogen,2-(Aminomethyl)pyridine (2-Picolylamine)
Cc1cccc(CN)n1,8.9,11,ring_nitrogen,2-Aminomethyl-6-methylpyridine
Cc1cccc(CN)n1,3.08,11,ring_nitrogen,2-Aminomethyl-6-methylpyridine
NCc1cccnc1,8.63,6,pyridine_nitrogen,3-(Aminomethyl)pyridine
NCc1cccnc1,9.12,6,pyridine_nitrogen,3-(Aminomethyl)pyridine
NCc1cccnc1,3.71,6,pyridine_nitrogen,3-(Aminomethyl)pyridine
NCc1cccnc1,4.06,6,pyridine_nitrogen,3-(Aminomethyl)pyridine
NCc1ccncc1,8.3,5,pyridine_nitrogen,4-(Aminomethyl)pyridine
NCc1ccncc1,4.05,5,pyridine_nitrogen,4-(Aminomethyl)pyridine
NCCc1ccccn1,9.55,8,pyridine_nitrogen,2-(2-Aminoethyl)pyridine
NCCc1ccccn1,9.7,8,pyridine_nitrogen,2-(2-Aminoethyl)pyridine
NCCc1ccccn1,9.84,8,pyridine_nitrogen,2-(2-Aminoethyl)pyridine
NCCc1ccccn1,9.6,8,pyridine_nitrogen,2-(2-Aminoethyl)pyridine
NCCc1ccccn1,3.9,8,pyridine_nitrogen,2-(2-Aminoethyl)pyridine
NCCc1ccccn1,4.16,8,pyridine_nitrogen,2-(2-Aminoethyl)pyridine
NCCc1ccccn1,4.37,8,pyridine_nitrogen,2-(2-Aminoethyl)pyridine
NCCc1ccccn1,3.75,8,pyridine_nitrogen,2-(2-Aminoethyl)pyridine
NCCc1cccnc1,9.44,7,pyridine_nitrogen,3-(2-Aminoethyl)pyridine
NCCc1cccnc1,4.64,7,pyridine_nitrogen,3-(2-Aminoethyl)pyridine
NCCc1ccncc1,9.37,6,pyridine_nitrogen,4-(2-Aminoethyl)pyridine
NCCc1ccncc1,4.98,6,pyridine_nitrogen,4-(2-Aminoethyl)pyridine
NCCCc1ccccn1,10.1,9,pyridine_nitrogen,2-(3-Aminopropyl)pyridine
NCCCc1ccccn1,4.98,9,pyridine_nitrogen,2-(3-Aminopropyl)pyridine
NCCCc1cccnc1,10.05,8,pyridine_nitrogen,3-(3-Aminopropyl)pyridine
NCCCc1cccnc1,5.19,8,pyridine_nitrogen,3-(3-Aminopropyl)pyridine
NCCCc1ccncc1,9.98,7,pyridine_nitrogen,4-(3-Aminopropyl)pyridine
NCCCc1ccncc1,5.51,7,pyridine_nitrogen,4-(3-Aminopropyl)pyridine
NCCCCc1ccccn1,10.3,10,pyridine_nitrogen,2-(4-Aminobutyl)pyridine
NCCCCc1ccccn1,5.56,10,pyridine_nitrogen,2-(4-Aminobutyl)pyridine