SMILES,pKa,Dissociable_Atoms,Functional_Group,Name,Dissociable_Atoms_Ordered,Functional_Group_Ordered,Dissociation_Order
COc1ccc(cc1)[As](O)(O)=O,8.93,9:10,alcohol:alcohol,4-Methoxybenzenearsonic acid,9:10,alcohol:alcohol,9(alcohol) > 10(alcohol)
COc1ccc(cc1)[As](O)(O)=O,3.79,9:10,alcohol:alcohol,4-Methoxybenzenearsonic acid,9:10,alcohol:alcohol,9(alcohol) > 10(alcohol)
COc1ccc(c(OC)c1)[As](O)(O)=O,9.55,11:12,alcohol:alcohol,"2,4-Dimethoxybenzenearsonic acid",11:12,alcohol:alcohol,11(alcohol) > 12(alcohol)
COc1ccc(c(OC)c1)[As](O)(O)=O,4.35,11:12,alcohol:alcohol,"2,4-Dimethoxybenzenearsonic acid",11:12,alcohol:alcohol,11(alcohol) > 12(alcohol)
Oc1ccccc1[P](O)(O)=O,15.4,0:7:8,phenol:phosphate:phosphate,2-Hydroxybenzenephosphonic acid (2-Phosphonophenol),0:7:8,phenol:phosphate:phosphate,0(phenol) > 7(phosphate) > 8(phosphate)
Oc1ccccc1[P](O)(O)=O,6.23,0:7:8,phenol:phosphate:phosphate,2-Hydroxybenzenephosphonic acid (2-Phosphonophenol),0:7:8,phenol:phosphate:phosphate,0(phenol) > 7(phosphate) > 8(phosphate)
Oc1ccccc1[P](O)(O)=O,6.48,0:7:8,phenol:phosphate:phosphate,2-Hydroxybenzenephosphonic acid (2-Phosphonophenol),0:7:8,phenol:phosphate:phosphate,0(phenol) > 7(phosphate) > 8(phosphate)
Oc1ccccc1[P](O)(O)=O,1.5,0:7:8,phenol:phosphate:phosphate,2-Hydroxybenzenephosphonic acid (2-Phosphonophenol),0:7:8,phenol:phosphate:phosphate,0(phenol) > 7(phosphate) > 8(phosphate)
Oc1ccccc1[P](O)(O)=O,1.7,0:7:8,phenol:phosphate:phosphate,2-Hydroxybenzenephosphonic acid (2-Phosphonophenol),0:7:8,phenol:phosphate:phosphate,0(phenol) > 7(phosphate) > 8(phosphate)
Oc1ccccc1[As](O)(O)=O,13.3,0:8:9,phenol:alcohol:alcohol,2-Hydroxybenzenearsonic acid (2-Arsonophenol),0:8:9,phenol:alcohol:alcohol,0(phenol) > 8(alcohol) > 9(alcohol)
Oc1ccccc1[As](O)(O)=O,7.5,0:8:9,phenol:alcohol:alcohol,2-Hydroxybenzenearsonic acid (2-Arsonophenol),0:8:9,phenol:alcohol:alcohol,0(phenol) > 8(alcohol) > 9(alcohol)
Oc1ccccc1[As](O)(O)=O,7.92,0:8:9,phenol:alcohol:alcohol,2-Hydroxybenzenearsonic acid (2-Arsonophenol),0:8:9,phenol:alcohol:alcohol,0(phenol) > 8(alcohol) > 9(alcohol)
Oc1ccccc1[As](O)(O)=O,3.83,0:8:9,phenol:alcohol:alcohol,2-Hydroxybenzenearsonic acid (2-Arsonophenol),0:8:9,phenol:alcohol:alcohol,0(phenol) > 8(alcohol) > 9(alcohol)
Oc1ccccc1[As](O)(O)=O,4.02,0:8:9,phenol:alcohol:alcohol,2-Hydroxybenzenearsonic acid (2-Arsonophenol),0:8:9,phenol:alcohol:alcohol,0(phenol) > 8(alcohol) > 9(alcohol)
OC(=O)Cc1cccc(O)c1,9.87,0:9,carboxylic_acid:phenol,3-Hydroxyphenylacetic acid,0:9,carboxylic_acid:phenol,0(carboxylic_acid) > 9(phenol)
OC(=O)Cc1cccc(O)c1,4.17,0:9,carboxylic_acid:phenol,3-Hydroxyphenylacetic acid,0:9,carboxylic_acid:phenol,0(carboxylic_acid) > 9(phenol)
OC(=O)Cc1ccc(O)cc1,9.88,0:8,carboxylic_acid:phenol,4-Hydroxyphenylacetic acid,0:8,carboxylic_acid:phenol,0(carboxylic_acid) > 8(phenol)
OC(=O)Cc1ccc(O)cc1,4.25,0:8,carboxylic_acid:phenol,4-Hydroxyphenylacetic acid,0:8,carboxylic_acid:phenol,0(carboxylic_acid) > 8(phenol)
OC(=O)CCc1cccc(O)c1,9.91,0:10,carboxylic_acid:phenol,3-(3-Hydroxyphenyl)propanoic acid,0:10,carboxylic_acid:phenol,0(carboxylic_acid) > 10(phenol)
OC(=O)CCc1cccc(O)c1,4.4,0:10,carboxylic_acid:phenol,3-(3-Hydroxyphenyl)propanoic acid,0:10,carboxylic_acid:phenol,0(carboxylic_acid) > 10(phenol)
OC(=O)CCc1ccc(O)cc1,10.03,0:9,carboxylic_acid:phenol,3-(4-Hydroxyphenyl)propanoic acid,0:9,carboxylic_acid:phenol,0(carboxylic_acid) > 9(phenol)
OC(=O)CCc1ccc(O)cc1,4.39,0:9,carboxylic_acid:phenol,3-(4-Hydroxyphenyl)propanoic acid,0:9,carboxylic_acid:phenol,0(carboxylic_acid) > 9(phenol)
COc1cc(CC(O)=O)ccc1O,9.76,7:12,carboxylic_acid:phenol,4-Hydroxy-3-methoxyphenylacetic acid,7:12,carboxylic_acid:phenol,7(carboxylic_acid) > 12(phenol)
COc1cc(CC(O)=O)ccc1O,4.31,7:12,carboxylic_acid:phenol,4-Hydroxy-3-methoxyphenylacetic acid,7:12,carboxylic_acid:phenol,7(carboxylic_acid) > 12(phenol)
COc1cc(CCC(O)=O)ccc1O,9.87,8:13,carboxylic_acid:phenol,3-(4-Hydroxy-3-methoxyphenyl)propanoic acid,8:13,carboxylic_acid:phenol,8(carboxylic_acid) > 13(phenol)
COc1cc(CCC(O)=O)ccc1O,4.48,8:13,carboxylic_acid:phenol,3-(4-Hydroxy-3-methoxyphenyl)propanoic acid,8:13,carboxylic_acid:phenol,8(carboxylic_acid) > 13(phenol)
OC(=O)[C@H](Cc1ccc(O)cc1)NC=O,9.63,0:12,carboxylic_acid:amine_secondary,N-Formyl-L-tyrosine,0:12,carboxylic_acid:amine_secondary,0(carboxylic_acid) > 12(amine_secondary)
OC(=O)[C@H](Cc1ccc(O)cc1)NC=O,3.11,0:12,carboxylic_acid:amine_secondary,N-Formyl-L-tyrosine,0:12,carboxylic_acid:amine_secondary,0(carboxylic_acid) > 12(amine_secondary)
OC(=O)[C@H](Cc1ccc(O)cc1)NC(=O)[C@@H]2CCC(=O)N2,10.25,0:12,carboxylic_acid:amine_secondary,L-Pyroglutamyl-L-tyrosine,0:12,carboxylic_acid:amine_secondary,0(carboxylic_acid) > 12(amine_secondary)
OC(=O)[C@H](Cc1ccc(O)cc1)NC(=O)[C@@H]2CCC(=O)N2,3.6,0:12,carboxylic_acid:amine_secondary,L-Pyroglutamyl-L-tyrosine,0:12,carboxylic_acid:amine_secondary,0(carboxylic_acid) > 12(amine_secondary)
OC(=O)c1ccccc1O,13.4,1:8,carboxylic_acid:phenol,2-Hydroxybenzoic acid (Salicylic acid),1:8,carboxylic_acid:phenol,1(carboxylic_acid) > 8(phenol)
OC(=O)c1ccccc1O,13.0,1:8,carboxylic_acid:phenol,2-Hydroxybenzoic acid (Salicylic acid),1:8,carboxylic_acid:phenol,1(carboxylic_acid) > 8(phenol)
OC(=O)c1ccccc1O,13.3,1:8,carboxylic_acid:phenol,2-Hydroxybenzoic acid (Salicylic acid),1:8,carboxylic_acid:phenol,1(carboxylic_acid) > 8(phenol)
OC(=O)c1ccccc1O,13.1,1:8,carboxylic_acid:phenol,2-Hydroxybenzoic acid (Salicylic acid),1:8,carboxylic_acid:phenol,1(carboxylic_acid) > 8(phenol)
OC(=O)c1ccccc1O,13.7,1:8,carboxylic_acid:phenol,2-Hydroxybenzoic acid (Salicylic acid),1:8,carboxylic_acid:phenol,1(carboxylic_acid) > 8(phenol)
OC(=O)c1ccccc1O,2.8,1:8,carboxylic_acid:phenol,2-Hydroxybenzoic acid (Salicylic acid),1:8,carboxylic_acid:phenol,1(carboxylic_acid) > 8(phenol)
OC(=O)c1ccccc1O,2.79,1:8,carboxylic_acid:phenol,2-Hydroxybenzoic acid (Salicylic acid),1:8,carboxylic_acid:phenol,1(carboxylic_acid) > 8(phenol)
OC(=O)c1ccccc1O,2.75,1:8,carboxylic_acid:phenol,2-Hydroxybenzoic acid (Salicylic acid),1:8,carboxylic_acid:phenol,1(carboxylic_acid) > 8(phenol)
OC(=O)c1ccccc1O,2.84,1:8,carboxylic_acid:phenol,2-Hydroxybenzoic acid (Salicylic acid),1:8,carboxylic_acid:phenol,1(carboxylic_acid) > 8(phenol)
OC(=O)c1ccccc1O,2.86,1:8,carboxylic_acid:phenol,2-Hydroxybenzoic acid (Salicylic acid),1:8,carboxylic_acid:phenol,1(carboxylic_acid) > 8(phenol)
OC(=O)c1ccccc1O,3.02,1:8,carboxylic_acid:phenol,2-Hydroxybenzoic acid (Salicylic acid),1:8,carboxylic_acid:phenol,1(carboxylic_acid) > 8(phenol)
OC(=O)c1ccccc1O,3.16,1:8,carboxylic_acid:phenol,2-Hydroxybenzoic acid (Salicylic acid),1:8,carboxylic_acid:phenol,1(carboxylic_acid) > 8(phenol)
OC(=O)c1ccccc1O,3.023,1:8,carboxylic_acid:phenol,2-Hydroxybenzoic acid (Salicylic acid),1:8,carboxylic_acid:phenol,1(carboxylic_acid) > 8(phenol)
OC(=O)c1ccccc1O,2.972,1:8,carboxylic_acid:phenol,2-Hydroxybenzoic acid (Salicylic acid),1:8,carboxylic_acid:phenol,1(carboxylic_acid) > 8(phenol)
OC(=O)c1ccccc1O,2.959,1:8,carboxylic_acid:phenol,2-Hydroxybenzoic acid (Salicylic acid),1:8,carboxylic_acid:phenol,1(carboxylic_acid) > 8(phenol)
OC(=O)c1cccc(O)c1,9.62,8:0,phenol:carboxylic_acid,3-Hydroxybenzoic acid,0:8,carboxylic_acid:phenol,0(carboxylic_acid) > 8(phenol)
OC(=O)c1cccc(O)c1,9.9,8:0,phenol:carboxylic_acid,3-Hydroxybenzoic acid,0:8,carboxylic_acid:phenol,0(carboxylic_acid) > 8(phenol)
OC(=O)c1cccc(O)c1,3.99,8:0,phenol:carboxylic_acid,3-Hydroxybenzoic acid,0:8,carboxylic_acid:phenol,0(carboxylic_acid) > 8(phenol)
OC(=O)c1cccc(O)c1,3.86,8:0,phenol:carboxylic_acid,3-Hydroxybenzoic acid,0:8,carboxylic_acid:phenol,0(carboxylic_acid) > 8(phenol)
OC(=O)c1cccc(O)c1,3.9,8:0,phenol:carboxylic_acid,3-Hydroxybenzoic acid,0:8,carboxylic_acid:phenol,0(carboxylic_acid) > 8(phenol)
OC(=O)c1cccc(O)c1,3.98,8:0,phenol:carboxylic_acid,3-Hydroxybenzoic acid,0:8,carboxylic_acid:phenol,0(carboxylic_acid) > 8(phenol)
OC(=O)c1cccc(O)c1,4.01,8:0,phenol:carboxylic_acid,3-Hydroxybenzoic acid,0:8,carboxylic_acid:phenol,0(carboxylic_acid) > 8(phenol)
OC(=O)c1cccc(O)c1,4.13,8:0,phenol:carboxylic_acid,3-Hydroxybenzoic acid,0:8,carboxylic_acid:phenol,0(carboxylic_acid) > 8(phenol)
OC(=O)c1cccc(O)c1,4.16,8:0,phenol:carboxylic_acid,3-Hydroxybenzoic acid,0:8,carboxylic_acid:phenol,0(carboxylic_acid) > 8(phenol)
OC(=O)c1cccc(O)c1,4.08,8:0,phenol:carboxylic_acid,3-Hydroxybenzoic acid,0:8,carboxylic_acid:phenol,0(carboxylic_acid) > 8(phenol)
OC(=O)c1ccc(O)cc1,8.98,7:0,phenol:carboxylic_acid,4-Hydroxybenzoic acid,0:7,carboxylic_acid:phenol,0(carboxylic_acid) > 7(phenol)
OC(=O)c1ccc(O)cc1,9.46,7:0,phenol:carboxylic_acid,4-Hydroxybenzoic acid,0:7,carboxylic_acid:phenol,0(carboxylic_acid) > 7(phenol)
OC(=O)c1ccc(O)cc1,4.37,7:0,phenol:carboxylic_acid,4-Hydroxybenzoic acid,0:7,carboxylic_acid:phenol,0(carboxylic_acid) > 7(phenol)
OC(=O)c1ccc(O)cc1,4.597,7:0,phenol:carboxylic_acid,4-Hydroxybenzoic acid,0:7,carboxylic_acid:phenol,0(carboxylic_acid) > 7(phenol)
OC(=O)c1ccc(O)cc1,4.581,7:0,phenol:carboxylic_acid,4-Hydroxybenzoic acid,0:7,carboxylic_acid:phenol,0(carboxylic_acid) > 7(phenol)
OC(=O)c1ccc(O)cc1,4.577,7:0,phenol:carboxylic_acid,4-Hydroxybenzoic acid,0:7,carboxylic_acid:phenol,0(carboxylic_acid) > 7(phenol)
Cc1cccc(C(O)=O)c1O,14.8,10:7,phenol:carboxylic_acid,2-Hydroxy-3-methylbenzoic acid (3-Methylsalicylic acid)(o-Cresotic acid),7:10,carboxylic_acid:phenol,7(carboxylic_acid) > 10(phenol)
Cc1cccc(C(O)=O)c1O,2.83,10:7,phenol:carboxylic_acid,2-Hydroxy-3-methylbenzoic acid (3-Methylsalicylic acid)(o-Cresotic acid),7:10,carboxylic_acid:phenol,7(carboxylic_acid) > 10(phenol)
Cc1cccc(C(O)=O)c1O,3.0,10:7,phenol:carboxylic_acid,2-Hydroxy-3-methylbenzoic acid (3-Methylsalicylic acid)(o-Cresotic acid),7:10,carboxylic_acid:phenol,7(carboxylic_acid) > 10(phenol)
Cc1ccc(C(O)=O)c(O)c1,14.1,9:6,phenol:carboxylic_acid,2-Hydroxy-4-methylbenzoic acid (4-Methylsalicylic acid)(m-Cresotic acid),6:9,carboxylic_acid:phenol,6(carboxylic_acid) > 9(phenol)
Cc1ccc(C(O)=O)c(O)c1,2.96,9:6,phenol:carboxylic_acid,2-Hydroxy-4-methylbenzoic acid (4-Methylsalicylic acid)(m-Cresotic acid),6:9,carboxylic_acid:phenol,6(carboxylic_acid) > 9(phenol)
Cc1ccc(C(O)=O)c(O)c1,3.15,9:6,phenol:carboxylic_acid,2-Hydroxy-4-methylbenzoic acid (4-Methylsalicylic acid)(m-Cresotic acid),6:9,carboxylic_acid:phenol,6(carboxylic_acid) > 9(phenol)
Cc1ccc(O)c(c1)C(O)=O,14.3,5:9,phenol:carboxylic_acid,2-Hydroxy-5-methylbenzoic acid (5-Methylsalicylic acid)(p-Cresotic acid),9:5,carboxylic_acid:phenol,9(carboxylic_acid) > 5(phenol)
Cc1ccc(O)c(c1)C(O)=O,2.88,5:9,phenol:carboxylic_acid,2-Hydroxy-5-methylbenzoic acid (5-Methylsalicylic acid)(p-Cresotic acid),9:5,carboxylic_acid:phenol,9(carboxylic_acid) > 5(phenol)
Cc1ccc(O)c(c1)C(O)=O,3.03,5:9,phenol:carboxylic_acid,2-Hydroxy-5-methylbenzoic acid (5-Methylsalicylic acid)(p-Cresotic acid),9:5,carboxylic_acid:phenol,9(carboxylic_acid) > 5(phenol)
Cc1cccc(O)c1C(O)=O,3.16,6:9,phenol:carboxylic_acid,2-Hydroxy-6-methylbenzoic acid (6-Methylsalicylic acid),9:6,carboxylic_acid:phenol,9(carboxylic_acid) > 6(phenol)
Cc1cccc(O)c1C(O)=O,3.32,6:9,phenol:carboxylic_acid,2-Hydroxy-6-methylbenzoic acid (6-Methylsalicylic acid),9:6,carboxylic_acid:phenol,9(carboxylic_acid) > 6(phenol)
CC(C)c1cccc(C(O)=O)c1O,2.76,12:9,phenol:carboxylic_acid,2-Hydroxy-3-(2-propyl)benzoic acid (3-Isopropylsalicylic acid),9:12,carboxylic_acid:phenol,9(carboxylic_acid) > 12(phenol)
OC(=O)c1cc(F)ccc1O,13.7,10:0,phenol:carboxylic_acid,5-Fluoro-2-hydroxybenzoic acid (5-Fluorosalicylic acid),0:10,carboxylic_acid:phenol,0(carboxylic_acid) > 10(phenol)
OC(=O)c1cc(F)ccc1O,2.56,10:0,phenol:carboxylic_acid,5-Fluoro-2-hydroxybenzoic acid (5-Fluorosalicylic acid),0:10,carboxylic_acid:phenol,0(carboxylic_acid) > 10(phenol)
OC(=O)c1cc(Br)ccc1O,12.5,10:0,phenol:carboxylic_acid,5-Bromo-2-hydroxybenzoic acid (5-Bromosalicylic acid),0:10,carboxylic_acid:phenol,0(carboxylic_acid) > 10(phenol)
OC(=O)c1cc(Br)ccc1O,12.84,10:0,phenol:carboxylic_acid,5-Bromo-2-hydroxybenzoic acid (5-Bromosalicylic acid),0:10,carboxylic_acid:phenol,0(carboxylic_acid) > 10(phenol)
OC(=O)c1cc(Br)ccc1O,2.44,10:0,phenol:carboxylic_acid,5-Bromo-2-hydroxybenzoic acid (5-Bromosalicylic acid),0:10,carboxylic_acid:phenol,0(carboxylic_acid) > 10(phenol)
OC(=O)c1cc(Br)ccc1O,2.653,10:0,phenol:carboxylic_acid,5-Bromo-2-hydroxybenzoic acid (5-Bromosalicylic acid),0:10,carboxylic_acid:phenol,0(carboxylic_acid) > 10(phenol)
OC(=O)c1cc(I)ccc1O,12.4,10:0,phenol:carboxylic_acid,2-Hydroxy-5-iodobenzoic acid (5-Iodosalicylic acid),0:10,carboxylic_acid:phenol,0(carboxylic_acid) > 10(phenol)
OC(=O)c1cc(I)ccc1O,12.79,10:0,phenol:carboxylic_acid,2-Hydroxy-5-iodobenzoic acid (5-Iodosalicylic acid),0:10,carboxylic_acid:phenol,0(carboxylic_acid) > 10(phenol)
OC(=O)c1cc(I)ccc1O,2.54,10:0,phenol:carboxylic_acid,2-Hydroxy-5-iodobenzoic acid (5-Iodosalicylic acid),0:10,carboxylic_acid:phenol,0(carboxylic_acid) > 10(phenol)
OC(=O)c1cc(I)ccc1O,2.622,10:0,phenol:carboxylic_acid,2-Hydroxy-5-iodobenzoic acid (5-Iodosalicylic acid),0:10,carboxylic_acid:phenol,0(carboxylic_acid) > 10(phenol)
OC(=O)c1cccc(c1O)[N+]([O-])=O,9.87,9:0,phenol:carboxylic_acid,2-Hydroxy-3-nitrobenzoic acid (3-Nitrosalicylic acid),0:9,carboxylic_acid:phenol,0(carboxylic_acid) > 9(phenol)
OC(=O)c1cccc(c1O)[N+]([O-])=O,10.328,9:0,phenol:carboxylic_acid,2-Hydroxy-3-nitrobenzoic acid (3-Nitrosalicylic acid),0:9,carboxylic_acid:phenol,0(carboxylic_acid) > 9(phenol)
OC(=O)c1cccc(c1O)[N+]([O-])=O,1.73,9:0,phenol:carboxylic_acid,2-Hydroxy-3-nitrobenzoic acid (3-Nitrosalicylic acid),0:9,carboxylic_acid:phenol,0(carboxylic_acid) > 9(phenol)
OC(=O)c1cccc(c1O)[N+]([O-])=O,1.76,9:0,phenol:carboxylic_acid,2-Hydroxy-3-nitrobenzoic acid (3-Nitrosalicylic acid),0:9,carboxylic_acid:phenol,0(carboxylic_acid) > 9(phenol)
OC(=O)c1cccc(c1O)[N+]([O-])=O,1.873,9:0,phenol:carboxylic_acid,2-Hydroxy-3-nitrobenzoic acid (3-Nitrosalicylic acid),0:9,carboxylic_acid:phenol,0(carboxylic_acid) > 9(phenol)
OC(=O)c1ccc(cc1O)[N+]([O-])=O,10.91,9:0,phenol:carboxylic_acid,2-Hydroxy-4-nitrobenzoic acid (4-Nitrosalicylic acid),0:9,carboxylic_acid:phenol,0(carboxylic_acid) > 9(phenol)
OC(=O)c1ccc(cc1O)[N+]([O-])=O,2.05,9:0,phenol:carboxylic_acid,2-Hydroxy-4-nitrobenzoic acid (4-Nitrosalicylic acid),0:9,carboxylic_acid:phenol,0(carboxylic_acid) > 9(phenol)
OC(=O)c1ccc(cc1O)[N+]([O-])=O,2.231,9:0,phenol:carboxylic_acid,2-Hydroxy-4-nitrobenzoic acid (4-Nitrosalicylic acid),0:9,carboxylic_acid:phenol,0(carboxylic_acid) > 9(phenol)
OC(=O)c1cc(ccc1O)[N+]([O-])=O,9.9,9:0,phenol:carboxylic_acid,2-Hydroxy-5-nitrobenzoic acid (5-Nitrosalicylic acid),0:9,carboxylic_acid:phenol,0(carboxylic_acid) > 9(phenol)
OC(=O)c1cc(ccc1O)[N+]([O-])=O,9.83,9:0,phenol:carboxylic_acid,2-Hydroxy-5-nitrobenzoic acid (5-Nitrosalicylic acid),0:9,carboxylic_acid:phenol,0(carboxylic_acid) > 9(phenol)
OC(=O)c1cc(ccc1O)[N+]([O-])=O,9.73,9:0,phenol:carboxylic_acid,2-Hydroxy-5-nitrobenzoic acid (5-Nitrosalicylic acid),0:9,carboxylic_acid:phenol,0(carboxylic_acid) > 9(phenol)
OC(=O)c1cc(ccc1O)[N+]([O-])=O,10.341,9:0,phenol:carboxylic_acid,2-Hydroxy-5-nitrobenzoic acid (5-Nitrosalicylic acid),0:9,carboxylic_acid:phenol,0(carboxylic_acid) > 9(phenol)
OC(=O)c1cc(ccc1O)[N+]([O-])=O,1.94,9:0,phenol:carboxylic_acid,2-Hydroxy-5-nitrobenzoic acid (5-Nitrosalicylic acid),0:9,carboxylic_acid:phenol,0(carboxylic_acid) > 9(phenol)
OC(=O)c1cc(ccc1O)[N+]([O-])=O,1.91,9:0,phenol:carboxylic_acid,2-Hydroxy-5-nitrobenzoic acid (5-Nitrosalicylic acid),0:9,carboxylic_acid:phenol,0(carboxylic_acid) > 9(phenol)
OC(=O)c1cc(ccc1O)[N+]([O-])=O,2.114,9:0,phenol:carboxylic_acid,2-Hydroxy-5-nitrobenzoic acid (5-Nitrosalicylic acid),0:9,carboxylic_acid:phenol,0(carboxylic_acid) > 9(phenol)
OC(=O)c1c(O)cccc1[N+]([O-])=O,9.04,5:0,phenol:carboxylic_acid,2-Hydroxy-6-nitrobenzoic acid (6-Nitrosalicylic acid),0:5,carboxylic_acid:phenol,0(carboxylic_acid) > 5(phenol)
OC(=O)c1c(O)cccc1[N+]([O-])=O,1.99,5:0,phenol:carboxylic_acid,2-Hydroxy-6-nitrobenzoic acid (6-Nitrosalicylic acid),0:5,carboxylic_acid:phenol,0(carboxylic_acid) > 5(phenol)
OC(=O)c1c(O)cccc1[N+]([O-])=O,2.236,5:0,phenol:carboxylic_acid,2-Hydroxy-6-nitrobenzoic acid (6-Nitrosalicylic acid),0:5,carboxylic_acid:phenol,0(carboxylic_acid) > 5(phenol)
OC(=O)c1cc(cc(c1O)[N+]([O-])=O)[N+]([O-])=O,7.07,9:0,phenol:carboxylic_acid,"2-Hydroxy-3,5-dinitrobenzoic acid (3,5-Dinitrosalicylic acid)",0:9,carboxylic_acid:phenol,0(carboxylic_acid) > 9(phenol)
OC(=O)c1cc(cc(c1O)[N+]([O-])=O)[N+]([O-])=O,7.04,9:0,phenol:carboxylic_acid,"2-Hydroxy-3,5-dinitrobenzoic acid (3,5-Dinitrosalicylic acid)",0:9,carboxylic_acid:phenol,0(carboxylic_acid) > 9(phenol)
OC(=O)c1cc(cc(c1O)[N+]([O-])=O)[N+]([O-])=O,7.38,9:0,phenol:carboxylic_acid,"2-Hydroxy-3,5-dinitrobenzoic acid (3,5-Dinitrosalicylic acid)",0:9,carboxylic_acid:phenol,0(carboxylic_acid) > 9(phenol)
OC(=O)c1cc(cc(c1O)[N+]([O-])=O)[N+]([O-])=O,0.3,9:0,phenol:carboxylic_acid,"2-Hydroxy-3,5-dinitrobenzoic acid (3,5-Dinitrosalicylic acid)",0:9,carboxylic_acid:phenol,0(carboxylic_acid) > 9(phenol)
OC(=O)c1cc(cc(c1O)[N+]([O-])=O)[N+]([O-])=O,0.4,9:0,phenol:carboxylic_acid,"2-Hydroxy-3,5-dinitrobenzoic acid (3,5-Dinitrosalicylic acid)",0:9,carboxylic_acid:phenol,0(carboxylic_acid) > 9(phenol)
OC(=O)c1cc(cc(c1O)[N+]([O-])=O)[N+]([O-])=O,0.5,9:0,phenol:carboxylic_acid,"2-Hydroxy-3,5-dinitrobenzoic acid (3,5-Dinitrosalicylic acid)",0:9,carboxylic_acid:phenol,0(carboxylic_acid) > 9(phenol)
OC(=O)c1cc(ccc1O)[S](O)(=O)=O,11.85,9:0,phenol:carboxylic_acid,2-Hydroxy-5-sulfobenzoic acid (5-Sulfosalicylic acid),0:9,carboxylic_acid:phenol,0(carboxylic_acid) > 9(phenol)
OC(=O)c1cc(ccc1O)[S](O)(=O)=O,11.53,9:0,phenol:carboxylic_acid,2-Hydroxy-5-sulfobenzoic acid (5-Sulfosalicylic acid),0:9,carboxylic_acid:phenol,0(carboxylic_acid) > 9(phenol)
OC(=O)c1cc(ccc1O)[S](O)(=O)=O,11.48,9:0,phenol:carboxylic_acid,2-Hydroxy-5-sulfobenzoic acid (5-Sulfosalicylic acid),0:9,carboxylic_acid:phenol,0(carboxylic_acid) > 9(phenol)
OC(=O)c1cc(ccc1O)[S](O)(=O)=O,11.54,9:0,phenol:carboxylic_acid,2-Hydroxy-5-sulfobenzoic acid (5-Sulfosalicylic acid),0:9,carboxylic_acid:phenol,0(carboxylic_acid) > 9(phenol)
OC(=O)c1cc(ccc1O)[S](O)(=O)=O,11.72,9:0,phenol:carboxylic_acid,2-Hydroxy-5-sulfobenzoic acid (5-Sulfosalicylic acid),0:9,carboxylic_acid:phenol,0(carboxylic_acid) > 9(phenol)
OC(=O)c1cc(ccc1O)[S](O)(=O)=O,12.53,9:0,phenol:carboxylic_acid,2-Hydroxy-5-sulfobenzoic acid (5-Sulfosalicylic acid),0:9,carboxylic_acid:phenol,0(carboxylic_acid) > 9(phenol)
OC(=O)c1cc(ccc1O)[S](O)(=O)=O,2.48,9:0,phenol:carboxylic_acid,2-Hydroxy-5-sulfobenzoic acid (5-Sulfosalicylic acid),0:9,carboxylic_acid:phenol,0(carboxylic_acid) > 9(phenol)
OC(=O)c1cc(ccc1O)[S](O)(=O)=O,2.34,9:0,phenol:carboxylic_acid,2-Hydroxy-5-sulfobenzoic acid (5-Sulfosalicylic acid),0:9,carboxylic_acid:phenol,0(carboxylic_acid) > 9(phenol)
OC(=O)c1cc(ccc1O)[S](O)(=O)=O,2.32,9:0,phenol:carboxylic_acid,2-Hydroxy-5-sulfobenzoic acid (5-Sulfosalicylic acid),0:9,carboxylic_acid:phenol,0(carboxylic_acid) > 9(phenol)
OC(=O)c1cc(ccc1O)[S](O)(=O)=O,2.45,9:0,phenol:carboxylic_acid,2-Hydroxy-5-sulfobenzoic acid (5-Sulfosalicylic acid),0:9,carboxylic_acid:phenol,0(carboxylic_acid) > 9(phenol)
OC(=O)c1cc(ccc1O)[S](O)(=O)=O,2.63,9:0,phenol:carboxylic_acid,2-Hydroxy-5-sulfobenzoic acid (5-Sulfosalicylic acid),0:9,carboxylic_acid:phenol,0(carboxylic_acid) > 9(phenol)
OC(=O)c1cc(ccc1O)[S](O)(=O)=O,2.84,9:0,phenol:carboxylic_acid,2-Hydroxy-5-sulfobenzoic acid (5-Sulfosalicylic acid),0:9,carboxylic_acid:phenol,0(carboxylic_acid) > 9(phenol)
OC(=O)c1cc(cc(Br)c1O)[S](O)(=O)=O,10.52,10:0,phenol:carboxylic_acid,3-Bromo-2-hydroxy-5-sulfobenzoic acid (3-Bromo-5-sulfosalicylic acid),0:10,carboxylic_acid:phenol,0(carboxylic_acid) > 10(phenol)
OC(=O)c1cc(cc(Br)c1O)[S](O)(=O)=O,10.47,10:0,phenol:carboxylic_acid,3-Bromo-2-hydroxy-5-sulfobenzoic acid (3-Bromo-5-sulfosalicylic acid),0:10,carboxylic_acid:phenol,0(carboxylic_acid) > 10(phenol)
OC(=O)c1cc(cc(Br)c1O)[S](O)(=O)=O,2.02,10:0,phenol:carboxylic_acid,3-Bromo-2-hydroxy-5-sulfobenzoic acid (3-Bromo-5-sulfosalicylic acid),0:10,carboxylic_acid:phenol,0(carboxylic_acid) > 10(phenol)