SMILES,pKa,Dissociable_Atoms,Functional_Group,Name,Dissociable_Atoms_Ordered,Functional_Group_Ordered,Dissociation_Order
OC(=O)/C=C/C(O)=O,2.79,0:6,carboxylic_acid:carboxylic_acid,trans-Butenedioic acid (Fumaric acid),0:6,carboxylic_acid:carboxylic_acid,0(carboxylic_acid) > 6(carboxylic_acid)
OC(=O)/C=C/C(O)=O,2.87,0:6,carboxylic_acid:carboxylic_acid,trans-Butenedioic acid (Fumaric acid),0:6,carboxylic_acid:carboxylic_acid,0(carboxylic_acid) > 6(carboxylic_acid)
OC(=O)/C=C/C(O)=O,2.92,0:6,carboxylic_acid:carboxylic_acid,trans-Butenedioic acid (Fumaric acid),0:6,carboxylic_acid:carboxylic_acid,0(carboxylic_acid) > 6(carboxylic_acid)
OC(=O)/C=C/C(O)=O,3.03,0:6,carboxylic_acid:carboxylic_acid,trans-Butenedioic acid (Fumaric acid),0:6,carboxylic_acid:carboxylic_acid,0(carboxylic_acid) > 6(carboxylic_acid)
OC(=O)/C=C/C(O)=O,3.08,0:6,carboxylic_acid:carboxylic_acid,trans-Butenedioic acid (Fumaric acid),0:6,carboxylic_acid:carboxylic_acid,0(carboxylic_acid) > 6(carboxylic_acid)
OC(=O)/C=C/C(O)=O,3.02,0:6,carboxylic_acid:carboxylic_acid,trans-Butenedioic acid (Fumaric acid),0:6,carboxylic_acid:carboxylic_acid,0(carboxylic_acid) > 6(carboxylic_acid)
OC(=O)CC(=C)C(O)=O,5.14,0:7,carboxylic_acid:carboxylic_acid,"Propene-2,3-dicarboxylic acid (Itaconic acid)",0:7,carboxylic_acid:carboxylic_acid,0(carboxylic_acid) > 7(carboxylic_acid)
OC(=O)CC(=C)C(O)=O,5.25,0:7,carboxylic_acid:carboxylic_acid,"Propene-2,3-dicarboxylic acid (Itaconic acid)",0:7,carboxylic_acid:carboxylic_acid,0(carboxylic_acid) > 7(carboxylic_acid)
OC(=O)CC(=C)C(O)=O,4.99,0:7,carboxylic_acid:carboxylic_acid,"Propene-2,3-dicarboxylic acid (Itaconic acid)",0:7,carboxylic_acid:carboxylic_acid,0(carboxylic_acid) > 7(carboxylic_acid)
OC(=O)CC(=C)C(O)=O,5.58,0:7,carboxylic_acid:carboxylic_acid,"Propene-2,3-dicarboxylic acid (Itaconic acid)",0:7,carboxylic_acid:carboxylic_acid,0(carboxylic_acid) > 7(carboxylic_acid)
OC(=O)CC(=C)C(O)=O,3.66,0:7,carboxylic_acid:carboxylic_acid,"Propene-2,3-dicarboxylic acid (Itaconic acid)",0:7,carboxylic_acid:carboxylic_acid,0(carboxylic_acid) > 7(carboxylic_acid)
OC(=O)CC(=C)C(O)=O,3.63,0:7,carboxylic_acid:carboxylic_acid,"Propene-2,3-dicarboxylic acid (Itaconic acid)",0:7,carboxylic_acid:carboxylic_acid,0(carboxylic_acid) > 7(carboxylic_acid)
OC(=O)CC(=C)C(O)=O,3.85,0:7,carboxylic_acid:carboxylic_acid,"Propene-2,3-dicarboxylic acid (Itaconic acid)",0:7,carboxylic_acid:carboxylic_acid,0(carboxylic_acid) > 7(carboxylic_acid)
OC(=O)C#CC(O)=O,2.34,0:6,carboxylic_acid:carboxylic_acid,Butynedioic acid (Acetylenedicarboxylic acid),0:6,carboxylic_acid:carboxylic_acid,0(carboxylic_acid) > 6(carboxylic_acid)
OC(=O)C#CC(O)=O,0.7,0:6,carboxylic_acid:carboxylic_acid,Butynedioic acid (Acetylenedicarboxylic acid),0:6,carboxylic_acid:carboxylic_acid,0(carboxylic_acid) > 6(carboxylic_acid)
OC(=O)CCCC(O)=O,5.06,0:7,carboxylic_acid:carboxylic_acid,Pentanedioic acid (Glutaric acid),0:7,carboxylic_acid:carboxylic_acid,0(carboxylic_acid) > 7(carboxylic_acid)
OC(=O)CCCC(O)=O,4.87,0:7,carboxylic_acid:carboxylic_acid,Pentanedioic acid (Glutaric acid),0:7,carboxylic_acid:carboxylic_acid,0(carboxylic_acid) > 7(carboxylic_acid)
OC(=O)CCCC(O)=O,4.84,0:7,carboxylic_acid:carboxylic_acid,Pentanedioic acid (Glutaric acid),0:7,carboxylic_acid:carboxylic_acid,0(carboxylic_acid) > 7(carboxylic_acid)
OC(=O)CCCC(O)=O,4.94,0:7,carboxylic_acid:carboxylic_acid,Pentanedioic acid (Glutaric acid),0:7,carboxylic_acid:carboxylic_acid,0(carboxylic_acid) > 7(carboxylic_acid)
OC(=O)CCCC(O)=O,4.95,0:7,carboxylic_acid:carboxylic_acid,Pentanedioic acid (Glutaric acid),0:7,carboxylic_acid:carboxylic_acid,0(carboxylic_acid) > 7(carboxylic_acid)
OC(=O)CCCC(O)=O,4.98,0:7,carboxylic_acid:carboxylic_acid,Pentanedioic acid (Glutaric acid),0:7,carboxylic_acid:carboxylic_acid,0(carboxylic_acid) > 7(carboxylic_acid)
OC(=O)CCCC(O)=O,5.13,0:7,carboxylic_acid:carboxylic_acid,Pentanedioic acid (Glutaric acid),0:7,carboxylic_acid:carboxylic_acid,0(carboxylic_acid) > 7(carboxylic_acid)
OC(=O)CCCC(O)=O,5.15,0:7,carboxylic_acid:carboxylic_acid,Pentanedioic acid (Glutaric acid),0:7,carboxylic_acid:carboxylic_acid,0(carboxylic_acid) > 7(carboxylic_acid)
OC(=O)CCCC(O)=O,5.422,0:7,carboxylic_acid:carboxylic_acid,Pentanedioic acid (Glutaric acid),0:7,carboxylic_acid:carboxylic_acid,0(carboxylic_acid) > 7(carboxylic_acid)
OC(=O)CCCC(O)=O,4.19,0:7,carboxylic_acid:carboxylic_acid,Pentanedioic acid (Glutaric acid),0:7,carboxylic_acid:carboxylic_acid,0(carboxylic_acid) > 7(carboxylic_acid)
OC(=O)CCCC(O)=O,4.1,0:7,carboxylic_acid:carboxylic_acid,Pentanedioic acid (Glutaric acid),0:7,carboxylic_acid:carboxylic_acid,0(carboxylic_acid) > 7(carboxylic_acid)
OC(=O)CCCC(O)=O,4.09,0:7,carboxylic_acid:carboxylic_acid,Pentanedioic acid (Glutaric acid),0:7,carboxylic_acid:carboxylic_acid,0(carboxylic_acid) > 7(carboxylic_acid)
OC(=O)CCCC(O)=O,4.11,0:7,carboxylic_acid:carboxylic_acid,Pentanedioic acid (Glutaric acid),0:7,carboxylic_acid:carboxylic_acid,0(carboxylic_acid) > 7(carboxylic_acid)
OC(=O)CCCC(O)=O,4.2,0:7,carboxylic_acid:carboxylic_acid,Pentanedioic acid (Glutaric acid),0:7,carboxylic_acid:carboxylic_acid,0(carboxylic_acid) > 7(carboxylic_acid)
OC(=O)CCCC(O)=O,4.25,0:7,carboxylic_acid:carboxylic_acid,Pentanedioic acid (Glutaric acid),0:7,carboxylic_acid:carboxylic_acid,0(carboxylic_acid) > 7(carboxylic_acid)
OC(=O)CCCC(O)=O,4.36,0:7,carboxylic_acid:carboxylic_acid,Pentanedioic acid (Glutaric acid),0:7,carboxylic_acid:carboxylic_acid,0(carboxylic_acid) > 7(carboxylic_acid)
OC(=O)CCCC(O)=O,4.43,0:7,carboxylic_acid:carboxylic_acid,Pentanedioic acid (Glutaric acid),0:7,carboxylic_acid:carboxylic_acid,0(carboxylic_acid) > 7(carboxylic_acid)
OC(=O)CCCC(O)=O,4.345,0:7,carboxylic_acid:carboxylic_acid,Pentanedioic acid (Glutaric acid),0:7,carboxylic_acid:carboxylic_acid,0(carboxylic_acid) > 7(carboxylic_acid)
CC(CC(O)=O)CC(O)=O,6.23,4:8,carboxylic_acid:carboxylic_acid,"2-Methylpropane-1,3-dicarboxylic acid (3-Methylglutaric acid)",4:8,carboxylic_acid:carboxylic_acid,4(carboxylic_acid) > 8(carboxylic_acid)
CC(CC(O)=O)CC(O)=O,4.25,4:8,carboxylic_acid:carboxylic_acid,"2-Methylpropane-1,3-dicarboxylic acid (3-Methylglutaric acid)",4:8,carboxylic_acid:carboxylic_acid,4(carboxylic_acid) > 8(carboxylic_acid)
CCC(CC(O)=O)CC(O)=O,6.33,5:9,carboxylic_acid:carboxylic_acid,"2-Ethylpropane-1,3-dicarboxylic acid (3-Ethylglutaric acid)",5:9,carboxylic_acid:carboxylic_acid,5(carboxylic_acid) > 9(carboxylic_acid)
CCC(CC(O)=O)CC(O)=O,4.29,5:9,carboxylic_acid:carboxylic_acid,"2-Ethylpropane-1,3-dicarboxylic acid (3-Ethylglutaric acid)",5:9,carboxylic_acid:carboxylic_acid,5(carboxylic_acid) > 9(carboxylic_acid)
CCCC(CC(O)=O)CC(O)=O,6.39,6:10,carboxylic_acid:carboxylic_acid,"2-Propylpropane-1,3-dicarboxylic acid (3-Propylglutaric acid)",6:10,carboxylic_acid:carboxylic_acid,6(carboxylic_acid) > 10(carboxylic_acid)
CCCC(CC(O)=O)CC(O)=O,4.31,6:10,carboxylic_acid:carboxylic_acid,"2-Propylpropane-1,3-dicarboxylic acid (3-Propylglutaric acid)",6:10,carboxylic_acid:carboxylic_acid,6(carboxylic_acid) > 10(carboxylic_acid)
CC(C)(CC(O)=O)CC(O)=O,6.29,5:9,carboxylic_acid:carboxylic_acid,"2,2-Dimethylpropane-1,3-dicarboxylic acid (3,3-Dimethylglutaric acid)",5:9,carboxylic_acid:carboxylic_acid,5(carboxylic_acid) > 9(carboxylic_acid)
CC(C)(CC(O)=O)CC(O)=O,3.7,5:9,carboxylic_acid:carboxylic_acid,"2,2-Dimethylpropane-1,3-dicarboxylic acid (3,3-Dimethylglutaric acid)",5:9,carboxylic_acid:carboxylic_acid,5(carboxylic_acid) > 9(carboxylic_acid)
CCC(C)(CC(O)=O)CC(O)=O,6.7,6:10,carboxylic_acid:carboxylic_acid,"2-Ethyl-2-methylpropane-1,3-dicarboxylic acid (3-Ethyl-3-methylglutaric acid)",6:10,carboxylic_acid:carboxylic_acid,6(carboxylic_acid) > 10(carboxylic_acid)
CCC(C)(CC(O)=O)CC(O)=O,3.62,6:10,carboxylic_acid:carboxylic_acid,"2-Ethyl-2-methylpropane-1,3-dicarboxylic acid (3-Ethyl-3-methylglutaric acid)",6:10,carboxylic_acid:carboxylic_acid,6(carboxylic_acid) > 10(carboxylic_acid)
CCC(CC)(CC(O)=O)CC(O)=O,7.13,7:11,carboxylic_acid:carboxylic_acid,"2,2-Diethylpropane-1,3-dicarboxylic acid (3,3-Diethylglutaric acid)",7:11,carboxylic_acid:carboxylic_acid,7(carboxylic_acid) > 11(carboxylic_acid)
CCC(CC)(CC(O)=O)CC(O)=O,3.62,7:11,carboxylic_acid:carboxylic_acid,"2,2-Diethylpropane-1,3-dicarboxylic acid (3,3-Diethylglutaric acid)",7:11,carboxylic_acid:carboxylic_acid,7(carboxylic_acid) > 11(carboxylic_acid)
CCCC(CCC)(CC(O)=O)CC(O)=O,7.31,9:13,carboxylic_acid:carboxylic_acid,"2,2-Dipropylpropane-1,3-dicarboxylic acid (3,3-Dipropylglutaric acid)",9:13,carboxylic_acid:carboxylic_acid,9(carboxylic_acid) > 13(carboxylic_acid)
CCCC(CCC)(CC(O)=O)CC(O)=O,3.69,9:13,carboxylic_acid:carboxylic_acid,"2,2-Dipropylpropane-1,3-dicarboxylic acid (3,3-Dipropylglutaric acid)",9:13,carboxylic_acid:carboxylic_acid,9(carboxylic_acid) > 13(carboxylic_acid)
OC(=O)CC1(CCCC1)CC(O)=O,6.59,0:11,carboxylic_acid:carboxylic_acid,"Cyclopentane-1,1-diacetic acid",0:11,carboxylic_acid:carboxylic_acid,0(carboxylic_acid) > 11(carboxylic_acid)
OC(=O)CC1(CCCC1)CC(O)=O,3.78,0:11,carboxylic_acid:carboxylic_acid,"Cyclopentane-1,1-diacetic acid",0:11,carboxylic_acid:carboxylic_acid,0(carboxylic_acid) > 11(carboxylic_acid)
OC(=O)CC1(CCCCC1)CC(O)=O,7.48,0:12,carboxylic_acid:carboxylic_acid,"Cyclohexane-1,1-diacetic acid",0:12,carboxylic_acid:carboxylic_acid,0(carboxylic_acid) > 12(carboxylic_acid)
OC(=O)CC1(CCCCC1)CC(O)=O,3.0,0:12,carboxylic_acid:carboxylic_acid,"Cyclohexane-1,1-diacetic acid",0:12,carboxylic_acid:carboxylic_acid,0(carboxylic_acid) > 12(carboxylic_acid)
OC(=O)C/C=C/C(O)=O,5.077,0:7,carboxylic_acid:carboxylic_acid,trans-Pentenedioic acid (trans-Glutaconic acid),0:7,carboxylic_acid:carboxylic_acid,0(carboxylic_acid) > 7(carboxylic_acid)
OC(=O)C/C=C/C(O)=O,3.769,0:7,carboxylic_acid:carboxylic_acid,trans-Pentenedioic acid (trans-Glutaconic acid),0:7,carboxylic_acid:carboxylic_acid,0(carboxylic_acid) > 7(carboxylic_acid)
OC(=O)CCCCC(O)=O,5.04,0:8,carboxylic_acid:carboxylic_acid,Hexanedioic acid (Adipic acid),0:8,carboxylic_acid:carboxylic_acid,0(carboxylic_acid) > 8(carboxylic_acid)
OC(=O)CCCCC(O)=O,4.9,0:8,carboxylic_acid:carboxylic_acid,Hexanedioic acid (Adipic acid),0:8,carboxylic_acid:carboxylic_acid,0(carboxylic_acid) > 8(carboxylic_acid)
OC(=O)CCCCC(O)=O,4.87,0:8,carboxylic_acid:carboxylic_acid,Hexanedioic acid (Adipic acid),0:8,carboxylic_acid:carboxylic_acid,0(carboxylic_acid) > 8(carboxylic_acid)
OC(=O)CCCCC(O)=O,4.92,0:8,carboxylic_acid:carboxylic_acid,Hexanedioic acid (Adipic acid),0:8,carboxylic_acid:carboxylic_acid,0(carboxylic_acid) > 8(carboxylic_acid)
OC(=O)CCCCC(O)=O,4.95,0:8,carboxylic_acid:carboxylic_acid,Hexanedioic acid (Adipic acid),0:8,carboxylic_acid:carboxylic_acid,0(carboxylic_acid) > 8(carboxylic_acid)
OC(=O)CCCCC(O)=O,4.98,0:8,carboxylic_acid:carboxylic_acid,Hexanedioic acid (Adipic acid),0:8,carboxylic_acid:carboxylic_acid,0(carboxylic_acid) > 8(carboxylic_acid)
OC(=O)CCCCC(O)=O,5.05,0:8,carboxylic_acid:carboxylic_acid,Hexanedioic acid (Adipic acid),0:8,carboxylic_acid:carboxylic_acid,0(carboxylic_acid) > 8(carboxylic_acid)
OC(=O)CCCCC(O)=O,5.15,0:8,carboxylic_acid:carboxylic_acid,Hexanedioic acid (Adipic acid),0:8,carboxylic_acid:carboxylic_acid,0(carboxylic_acid) > 8(carboxylic_acid)
OC(=O)CCCCC(O)=O,5.23,0:8,carboxylic_acid:carboxylic_acid,Hexanedioic acid (Adipic acid),0:8,carboxylic_acid:carboxylic_acid,0(carboxylic_acid) > 8(carboxylic_acid)
OC(=O)CCCCC(O)=O,5.36,0:8,carboxylic_acid:carboxylic_acid,Hexanedioic acid (Adipic acid),0:8,carboxylic_acid:carboxylic_acid,0(carboxylic_acid) > 8(carboxylic_acid)
OC(=O)CCCCC(O)=O,5.42,0:8,carboxylic_acid:carboxylic_acid,Hexanedioic acid (Adipic acid),0:8,carboxylic_acid:carboxylic_acid,0(carboxylic_acid) > 8(carboxylic_acid)
OC(=O)CCCCC(O)=O,4.26,0:8,carboxylic_acid:carboxylic_acid,Hexanedioic acid (Adipic acid),0:8,carboxylic_acid:carboxylic_acid,0(carboxylic_acid) > 8(carboxylic_acid)
OC(=O)CCCCC(O)=O,4.22,0:8,carboxylic_acid:carboxylic_acid,Hexanedioic acid (Adipic acid),0:8,carboxylic_acid:carboxylic_acid,0(carboxylic_acid) > 8(carboxylic_acid)
OC(=O)CCCCC(O)=O,4.19,0:8,carboxylic_acid:carboxylic_acid,Hexanedioic acid (Adipic acid),0:8,carboxylic_acid:carboxylic_acid,0(carboxylic_acid) > 8(carboxylic_acid)
OC(=O)CCCCC(O)=O,4.21,0:8,carboxylic_acid:carboxylic_acid,Hexanedioic acid (Adipic acid),0:8,carboxylic_acid:carboxylic_acid,0(carboxylic_acid) > 8(carboxylic_acid)
OC(=O)CCCCC(O)=O,4.3,0:8,carboxylic_acid:carboxylic_acid,Hexanedioic acid (Adipic acid),0:8,carboxylic_acid:carboxylic_acid,0(carboxylic_acid) > 8(carboxylic_acid)
OC(=O)CCCCC(O)=O,4.31,0:8,carboxylic_acid:carboxylic_acid,Hexanedioic acid (Adipic acid),0:8,carboxylic_acid:carboxylic_acid,0(carboxylic_acid) > 8(carboxylic_acid)
OC(=O)CCCCC(O)=O,4.34,0:8,carboxylic_acid:carboxylic_acid,Hexanedioic acid (Adipic acid),0:8,carboxylic_acid:carboxylic_acid,0(carboxylic_acid) > 8(carboxylic_acid)
OC(=O)CCCCC(O)=O,4.4,0:8,carboxylic_acid:carboxylic_acid,Hexanedioic acid (Adipic acid),0:8,carboxylic_acid:carboxylic_acid,0(carboxylic_acid) > 8(carboxylic_acid)
OC(=O)CCCCC(O)=O,4.48,0:8,carboxylic_acid:carboxylic_acid,Hexanedioic acid (Adipic acid),0:8,carboxylic_acid:carboxylic_acid,0(carboxylic_acid) > 8(carboxylic_acid)
OC(=O)CCCCC(O)=O,4.52,0:8,carboxylic_acid:carboxylic_acid,Hexanedioic acid (Adipic acid),0:8,carboxylic_acid:carboxylic_acid,0(carboxylic_acid) > 8(carboxylic_acid)
OC(=O)CCCCC(O)=O,4.76,0:8,carboxylic_acid:carboxylic_acid,Hexanedioic acid (Adipic acid),0:8,carboxylic_acid:carboxylic_acid,0(carboxylic_acid) > 8(carboxylic_acid)
OC(=O)CCCCC(O)=O,4.424,0:8,carboxylic_acid:carboxylic_acid,Hexanedioic acid (Adipic acid),0:8,carboxylic_acid:carboxylic_acid,0(carboxylic_acid) > 8(carboxylic_acid)
OC(=O)CCCCCC(O)=O,5.08,0:9,carboxylic_acid:carboxylic_acid,Heptanedioic acid (Pimelic acid),0:9,carboxylic_acid:carboxylic_acid,0(carboxylic_acid) > 9(carboxylic_acid)
OC(=O)CCCCCC(O)=O,4.95,0:9,carboxylic_acid:carboxylic_acid,Heptanedioic acid (Pimelic acid),0:9,carboxylic_acid:carboxylic_acid,0(carboxylic_acid) > 9(carboxylic_acid)
OC(=O)CCCCCC(O)=O,4.91,0:9,carboxylic_acid:carboxylic_acid,Heptanedioic acid (Pimelic acid),0:9,carboxylic_acid:carboxylic_acid,0(carboxylic_acid) > 9(carboxylic_acid)
OC(=O)CCCCCC(O)=O,4.97,0:9,carboxylic_acid:carboxylic_acid,Heptanedioic acid (Pimelic acid),0:9,carboxylic_acid:carboxylic_acid,0(carboxylic_acid) > 9(carboxylic_acid)
OC(=O)CCCCCC(O)=O,5.02,0:9,carboxylic_acid:carboxylic_acid,Heptanedioic acid (Pimelic acid),0:9,carboxylic_acid:carboxylic_acid,0(carboxylic_acid) > 9(carboxylic_acid)
OC(=O)CCCCCC(O)=O,5.09,0:9,carboxylic_acid:carboxylic_acid,Heptanedioic acid (Pimelic acid),0:9,carboxylic_acid:carboxylic_acid,0(carboxylic_acid) > 9(carboxylic_acid)
OC(=O)CCCCCC(O)=O,5.18,0:9,carboxylic_acid:carboxylic_acid,Heptanedioic acid (Pimelic acid),0:9,carboxylic_acid:carboxylic_acid,0(carboxylic_acid) > 9(carboxylic_acid)
OC(=O)CCCCCC(O)=O,5.25,0:9,carboxylic_acid:carboxylic_acid,Heptanedioic acid (Pimelic acid),0:9,carboxylic_acid:carboxylic_acid,0(carboxylic_acid) > 9(carboxylic_acid)
OC(=O)CCCCCC(O)=O,5.434,0:9,carboxylic_acid:carboxylic_acid,Heptanedioic acid (Pimelic acid),0:9,carboxylic_acid:carboxylic_acid,0(carboxylic_acid) > 9(carboxylic_acid)
OC(=O)CCCCCC(O)=O,4.31,0:9,carboxylic_acid:carboxylic_acid,Heptanedioic acid (Pimelic acid),0:9,carboxylic_acid:carboxylic_acid,0(carboxylic_acid) > 9(carboxylic_acid)
OC(=O)CCCCCC(O)=O,4.26,0:9,carboxylic_acid:carboxylic_acid,Heptanedioic acid (Pimelic acid),0:9,carboxylic_acid:carboxylic_acid,0(carboxylic_acid) > 9(carboxylic_acid)
OC(=O)CCCCCC(O)=O,4.28,0:9,carboxylic_acid:carboxylic_acid,Heptanedioic acid (Pimelic acid),0:9,carboxylic_acid:carboxylic_acid,0(carboxylic_acid) > 9(carboxylic_acid)
OC(=O)CCCCCC(O)=O,4.37,0:9,carboxylic_acid:carboxylic_acid,Heptanedioic acid (Pimelic acid),0:9,carboxylic_acid:carboxylic_acid,0(carboxylic_acid) > 9(carboxylic_acid)
OC(=O)CCCCCC(O)=O,4.42,0:9,carboxylic_acid:carboxylic_acid,Heptanedioic acid (Pimelic acid),0:9,carboxylic_acid:carboxylic_acid,0(carboxylic_acid) > 9(carboxylic_acid)
OC(=O)CCCCCC(O)=O,4.55,0:9,carboxylic_acid:carboxylic_acid,Heptanedioic acid (Pimelic acid),0:9,carboxylic_acid:carboxylic_acid,0(carboxylic_acid) > 9(carboxylic_acid)
OC(=O)CCCCCC(O)=O,4.62,0:9,carboxylic_acid:carboxylic_acid,Heptanedioic acid (Pimelic acid),0:9,carboxylic_acid:carboxylic_acid,0(carboxylic_acid) > 9(carboxylic_acid)
OC(=O)CCCCCC(O)=O,4.493,0:9,carboxylic_acid:carboxylic_acid,Heptanedioic acid (Pimelic acid),0:9,carboxylic_acid:carboxylic_acid,0(carboxylic_acid) > 9(carboxylic_acid)
OC(=O)CCCCCCC(O)=O,5.08,0:10,carboxylic_acid:carboxylic_acid,Octanedioic acid (Suberic acid),0:10,carboxylic_acid:carboxylic_acid,0(carboxylic_acid) > 10(carboxylic_acid)
OC(=O)CCCCCCC(O)=O,4.94,0:10,carboxylic_acid:carboxylic_acid,Octanedioic acid (Suberic acid),0:10,carboxylic_acid:carboxylic_acid,0(carboxylic_acid) > 10(carboxylic_acid)
OC(=O)CCCCCCC(O)=O,4.96,0:10,carboxylic_acid:carboxylic_acid,Octanedioic acid (Suberic acid),0:10,carboxylic_acid:carboxylic_acid,0(carboxylic_acid) > 10(carboxylic_acid)
OC(=O)CCCCCCC(O)=O,5.04,0:10,carboxylic_acid:carboxylic_acid,Octanedioic acid (Suberic acid),0:10,carboxylic_acid:carboxylic_acid,0(carboxylic_acid) > 10(carboxylic_acid)
OC(=O)CCCCCCC(O)=O,5.09,0:10,carboxylic_acid:carboxylic_acid,Octanedioic acid (Suberic acid),0:10,carboxylic_acid:carboxylic_acid,0(carboxylic_acid) > 10(carboxylic_acid)
OC(=O)CCCCCCC(O)=O,5.22,0:10,carboxylic_acid:carboxylic_acid,Octanedioic acid (Suberic acid),0:10,carboxylic_acid:carboxylic_acid,0(carboxylic_acid) > 10(carboxylic_acid)
OC(=O)CCCCCCC(O)=O,5.29,0:10,carboxylic_acid:carboxylic_acid,Octanedioic acid (Suberic acid),0:10,carboxylic_acid:carboxylic_acid,0(carboxylic_acid) > 10(carboxylic_acid)
OC(=O)CCCCCCC(O)=O,5.41,0:10,carboxylic_acid:carboxylic_acid,Octanedioic acid (Suberic acid),0:10,carboxylic_acid:carboxylic_acid,0(carboxylic_acid) > 10(carboxylic_acid)
OC(=O)CCCCCCC(O)=O,4.33,0:10,carboxylic_acid:carboxylic_acid,Octanedioic acid (Suberic acid),0:10,carboxylic_acid:carboxylic_acid,0(carboxylic_acid) > 10(carboxylic_acid)
OC(=O)CCCCCCC(O)=O,4.28,0:10,carboxylic_acid:carboxylic_acid,Octanedioic acid (Suberic acid),0:10,carboxylic_acid:carboxylic_acid,0(carboxylic_acid) > 10(carboxylic_acid)
OC(=O)CCCCCCC(O)=O,4.29,0:10,carboxylic_acid:carboxylic_acid,Octanedioic acid (Suberic acid),0:10,carboxylic_acid:carboxylic_acid,0(carboxylic_acid) > 10(carboxylic_acid)
OC(=O)CCCCCCC(O)=O,4.31,0:10,carboxylic_acid:carboxylic_acid,Octanedioic acid (Suberic acid),0:10,carboxylic_acid:carboxylic_acid,0(carboxylic_acid) > 10(carboxylic_acid)
OC(=O)CCCCCCC(O)=O,4.4,0:10,carboxylic_acid:carboxylic_acid,Octanedioic acid (Suberic acid),0:10,carboxylic_acid:carboxylic_acid,0(carboxylic_acid) > 10(carboxylic_acid)
OC(=O)CCCCCCC(O)=O,4.47,0:10,carboxylic_acid:carboxylic_acid,Octanedioic acid (Suberic acid),0:10,carboxylic_acid:carboxylic_acid,0(carboxylic_acid) > 10(carboxylic_acid)
OC(=O)CCCCCCC(O)=O,4.57,0:10,carboxylic_acid:carboxylic_acid,Octanedioic acid (Suberic acid),0:10,carboxylic_acid:carboxylic_acid,0(carboxylic_acid) > 10(carboxylic_acid)
OC(=O)CCCCCCC(O)=O,4.65,0:10,carboxylic_acid:carboxylic_acid,Octanedioic acid (Suberic acid),0:10,carboxylic_acid:carboxylic_acid,0(carboxylic_acid) > 10(carboxylic_acid)
OC(=O)CCCCCCC(O)=O,4.52,0:10,carboxylic_acid:carboxylic_acid,Octanedioic acid (Suberic acid),0:10,carboxylic_acid:carboxylic_acid,0(carboxylic_acid) > 10(carboxylic_acid)
OC(=O)CCCCCCCC(O)=O,5.09,0:11,carboxylic_acid:carboxylic_acid,Nonanedioic acid (Azelaic acid),0:11,carboxylic_acid:carboxylic_acid,0(carboxylic_acid) > 11(carboxylic_acid)
OC(=O)CCCCCCCC(O)=O,4.97,0:11,carboxylic_acid:carboxylic_acid,Nonanedioic acid (Azelaic acid),0:11,carboxylic_acid:carboxylic_acid,0(carboxylic_acid) > 11(carboxylic_acid)
OC(=O)CCCCCCCC(O)=O,4.96,0:11,carboxylic_acid:carboxylic_acid,Nonanedioic acid (Azelaic acid),0:11,carboxylic_acid:carboxylic_acid,0(carboxylic_acid) > 11(carboxylic_acid)