SMILES,pKa,Dissociable_Atoms,Functional_Group,Name,Dissociable_Atoms_Ordered,Functional_Group_Ordered,Dissociation_Order
C[C@H]1CN[C@@H](C)CN1,9.76,3:7,amine_secondary:amine_secondary,"cis-2,5-Dimethylpiperazine",3:7,amine_secondary:amine_secondary,3(amine_secondary) > 7(amine_secondary)
C[C@H]1CN[C@@H](C)CN1,5.32,3:7,amine_secondary:amine_secondary,"cis-2,5-Dimethylpiperazine",3:7,amine_secondary:amine_secondary,3(amine_secondary) > 7(amine_secondary)
C[C@H]1CN[C@H](C)CN1,9.58,3:7,amine_secondary:amine_secondary,"trans-2,5-Dimethylpiperazine",3:7,amine_secondary:amine_secondary,3(amine_secondary) > 7(amine_secondary)
C[C@H]1CN[C@H](C)CN1,5.37,3:7,amine_secondary:amine_secondary,"trans-2,5-Dimethylpiperazine",3:7,amine_secondary:amine_secondary,3(amine_secondary) > 7(amine_secondary)
CC1CNCC(C)N1,9.57,3:7,amine_secondary:amine_secondary,"2,6-Dimethylpiperazine",3:7,amine_secondary:amine_secondary,3(amine_secondary) > 7(amine_secondary)
CC1CNCC(C)N1,5.4,3:7,amine_secondary:amine_secondary,"2,6-Dimethylpiperazine",3:7,amine_secondary:amine_secondary,3(amine_secondary) > 7(amine_secondary)
NCCN1CCNCC1,9.55,0:6,amine_primary:amine_secondary,N-(2-Aminoethyl)piperazine,0:6,amine_primary:amine_secondary,0(amine_primary) > 6(amine_secondary)
NCCN1CCNCC1,8.44,0:6,amine_primary:amine_secondary,N-(2-Aminoethyl)piperazine,0:6,amine_primary:amine_secondary,0(amine_primary) > 6(amine_secondary)
C1CN2CCN1CC2,8.82,1:4,tertiary_amine:tertiary_amine,"1,4-Diazabicyclo[2.2.2]octane (Triethylenediamine)",1:4,tertiary_amine:tertiary_amine,1(tertiary_amine) > 4(tertiary_amine)
C1CN2CCN1CC2,2.97,1:4,tertiary_amine:tertiary_amine,"1,4-Diazabicyclo[2.2.2]octane (Triethylenediamine)",1:4,tertiary_amine:tertiary_amine,1(tertiary_amine) > 4(tertiary_amine)
C1CNCCNC1,10.26,2:5,amine_secondary:amine_secondary,"1,4-Diazacycloheptane (Perhydro-1,4-diazepine)(Homopiperazine)",2:5,amine_secondary:amine_secondary,2(amine_secondary) > 5(amine_secondary)
C1CNCCNC1,6.6,2:5,amine_secondary:amine_secondary,"1,4-Diazacycloheptane (Perhydro-1,4-diazepine)(Homopiperazine)",2:5,amine_secondary:amine_secondary,2(amine_secondary) > 5(amine_secondary)
C1CNCCCNC1,10.65,2:6,amine_secondary:amine_secondary,"1,5-Diazacyclooctane",2:6,amine_secondary:amine_secondary,2(amine_secondary) > 6(amine_secondary)
C1CNCCCNC1,7.07,2:6,amine_secondary:amine_secondary,"1,5-Diazacyclooctane",2:6,amine_secondary:amine_secondary,2(amine_secondary) > 6(amine_secondary)
C1CNCCNCCN1,10.44,2:5,amine_secondary:amine_secondary,"1,4,7-Triazacyclononane ([9]aneN3)",2:5,amine_secondary:amine_secondary,2(amine_secondary) > 5(amine_secondary)
C1CNCCNCCN1,10.79,2:5,amine_secondary:amine_secondary,"1,4,7-Triazacyclononane ([9]aneN3)",2:5,amine_secondary:amine_secondary,2(amine_secondary) > 5(amine_secondary)
C1CNCCNCCN1,6.81,2:5,amine_secondary:amine_secondary,"1,4,7-Triazacyclononane ([9]aneN3)",2:5,amine_secondary:amine_secondary,2(amine_secondary) > 5(amine_secondary)
C1CNCCNCCN1,7.09,2:5,amine_secondary:amine_secondary,"1,4,7-Triazacyclononane ([9]aneN3)",2:5,amine_secondary:amine_secondary,2(amine_secondary) > 5(amine_secondary)
C1CNCCCN(Cc2cc[nH]n2)NC1,11.87,2:11:13,amine_secondary:amine_secondary:amine_secondary,"1-(3-Pyrazolylmethyl)-1,5,9-triazacyclononane",2:11:13,amine_secondary:amine_secondary:amine_secondary,2(amine_secondary) > 11(amine_secondary) > 13(amine_secondary)
C1CNCCCN(Cc2cc[nH]n2)NC1,6.73,2:11:13,amine_secondary:amine_secondary:amine_secondary,"1-(3-Pyrazolylmethyl)-1,5,9-triazacyclononane",2:11:13,amine_secondary:amine_secondary:amine_secondary,2(amine_secondary) > 11(amine_secondary) > 13(amine_secondary)
C1CNCCCN(Cc2cc[nH]n2)NC1,1.86,2:11:13,amine_secondary:amine_secondary:amine_secondary,"1-(3-Pyrazolylmethyl)-1,5,9-triazacyclononane",2:11:13,amine_secondary:amine_secondary:amine_secondary,2(amine_secondary) > 11(amine_secondary) > 13(amine_secondary)
C1CNCCCN(Cc2c[nH]cn2)NC1,10.74,2:10:13,amine_secondary:amine_secondary:amine_secondary,"1-(4-Imidazolylmethyl)-1,5,9-triazacyclononane",2:10:13,amine_secondary:amine_secondary:amine_secondary,2(amine_secondary) > 10(amine_secondary) > 13(amine_secondary)
C1CNCCCN(Cc2c[nH]cn2)NC1,7.22,2:10:13,amine_secondary:amine_secondary:amine_secondary,"1-(4-Imidazolylmethyl)-1,5,9-triazacyclononane",2:10:13,amine_secondary:amine_secondary:amine_secondary,2(amine_secondary) > 10(amine_secondary) > 13(amine_secondary)
C1CNCCCN(Cc2c[nH]cn2)NC1,4.91,2:10:13,amine_secondary:amine_secondary:amine_secondary,"1-(4-Imidazolylmethyl)-1,5,9-triazacyclononane",2:10:13,amine_secondary:amine_secondary:amine_secondary,2(amine_secondary) > 10(amine_secondary) > 13(amine_secondary)
C1CNCCCNC(CCNC1)c2c[nH]cn2,13.0,2:6:10:14,amine_secondary:amine_secondary:amine_secondary:amine_secondary,"2-(4-Imidazolyl)-1,5,9-triazacyclododecane",2:6:10:14,amine_secondary:amine_secondary:amine_secondary:amine_secondary,2(amine_secondary) > 6(amine_secondary) > 10(amine_secondary) > 14(amine_secondary)
C1CNCCCNC(CCNC1)c2c[nH]cn2,7.54,2:6:10:14,amine_secondary:amine_secondary:amine_secondary:amine_secondary,"2-(4-Imidazolyl)-1,5,9-triazacyclododecane",2:6:10:14,amine_secondary:amine_secondary:amine_secondary:amine_secondary,2(amine_secondary) > 6(amine_secondary) > 10(amine_secondary) > 14(amine_secondary)
C1CNCCCNC(CCNC1)c2c[nH]cn2,5.2,2:6:10:14,amine_secondary:amine_secondary:amine_secondary:amine_secondary,"2-(4-Imidazolyl)-1,5,9-triazacyclododecane",2:6:10:14,amine_secondary:amine_secondary:amine_secondary:amine_secondary,2(amine_secondary) > 6(amine_secondary) > 10(amine_secondary) > 14(amine_secondary)
C1CNCCCNC(CCNC1)c2c[nH]cn2,2.0,2:6:10:14,amine_secondary:amine_secondary:amine_secondary:amine_secondary,"2-(4-Imidazolyl)-1,5,9-triazacyclododecane",2:6:10:14,amine_secondary:amine_secondary:amine_secondary:amine_secondary,2(amine_secondary) > 6(amine_secondary) > 10(amine_secondary) > 14(amine_secondary)
CN1CCNCCN(C)CCNCC1,10.76,4:11,amine_secondary:amine_secondary,"1,7-Dimethyl-1,4,7,10-tetraazacyclododecane",4:11,amine_secondary:amine_secondary,4(amine_secondary) > 11(amine_secondary)
CN1CCNCCN(C)CCNCC1,9.41,4:11,amine_secondary:amine_secondary,"1,7-Dimethyl-1,4,7,10-tetraazacyclododecane",4:11,amine_secondary:amine_secondary,4(amine_secondary) > 11(amine_secondary)
CC1CC(C)NCCNCCNCCN1,11.4,5:8,amine_secondary:amine_secondary,"11,13-Dimethyl-1,4,7,10-tetraazacyclotridecane",5:8,amine_secondary:amine_secondary,5(amine_secondary) > 8(amine_secondary)
CC1CC(C)NCCNCCNCCN1,9.76,5:8,amine_secondary:amine_secondary,"11,13-Dimethyl-1,4,7,10-tetraazacyclotridecane",5:8,amine_secondary:amine_secondary,5(amine_secondary) > 8(amine_secondary)
CC1(C)CNCCNCCNCCNC1,11.4,4:7,amine_secondary:amine_secondary,"12,12-Dimethyl-1,4,7,10-tetraazacyclotridecane",4:7,amine_secondary:amine_secondary,4(amine_secondary) > 7(amine_secondary)
CC1(C)CNCCNCCNCCNC1,9.95,4:7,amine_secondary:amine_secondary,"12,12-Dimethyl-1,4,7,10-tetraazacyclotridecane",4:7,amine_secondary:amine_secondary,4(amine_secondary) > 7(amine_secondary)
CC1CC(C)(C)NCCNCCNCCN1,11.3,6:9,amine_secondary:amine_secondary,"11,11,13-Trimethyl-1,4,7,10-tetraazacyclotridecane",6:9,amine_secondary:amine_secondary,6(amine_secondary) > 9(amine_secondary)
CC1CC(C)(C)NCCNCCNCCN1,9.46,6:9,amine_secondary:amine_secondary,"11,11,13-Trimethyl-1,4,7,10-tetraazacyclotridecane",6:9,amine_secondary:amine_secondary,6(amine_secondary) > 9(amine_secondary)
C1CCNCCNCCNCCNC1,10.92,3:6:9:12,amine_secondary:amine_secondary:amine_secondary:amine_secondary,"1,4,7,10-Tetraazacyclotetradecane",3:6:9:12,amine_secondary:amine_secondary:amine_secondary:amine_secondary,3(amine_secondary) > 6(amine_secondary) > 9(amine_secondary) > 12(amine_secondary)
C1CCNCCNCCNCCNC1,10.45,3:6:9:12,amine_secondary:amine_secondary:amine_secondary:amine_secondary,"1,4,7,10-Tetraazacyclotetradecane",3:6:9:12,amine_secondary:amine_secondary:amine_secondary:amine_secondary,3(amine_secondary) > 6(amine_secondary) > 9(amine_secondary) > 12(amine_secondary)
C1CCNCCNCCNCCNC1,10.98,3:6:9:12,amine_secondary:amine_secondary:amine_secondary:amine_secondary,"1,4,7,10-Tetraazacyclotetradecane",3:6:9:12,amine_secondary:amine_secondary:amine_secondary:amine_secondary,3(amine_secondary) > 6(amine_secondary) > 9(amine_secondary) > 12(amine_secondary)
C1CCNCCNCCNCCNC1,9.4,3:6:9:12,amine_secondary:amine_secondary:amine_secondary:amine_secondary,"1,4,7,10-Tetraazacyclotetradecane",3:6:9:12,amine_secondary:amine_secondary:amine_secondary:amine_secondary,3(amine_secondary) > 6(amine_secondary) > 9(amine_secondary) > 12(amine_secondary)
C1CCNCCNCCNCCNC1,9.44,3:6:9:12,amine_secondary:amine_secondary:amine_secondary:amine_secondary,"1,4,7,10-Tetraazacyclotetradecane",3:6:9:12,amine_secondary:amine_secondary:amine_secondary:amine_secondary,3(amine_secondary) > 6(amine_secondary) > 9(amine_secondary) > 12(amine_secondary)
C1CCNCCNCCNCCNC1,9.75,3:6:9:12,amine_secondary:amine_secondary:amine_secondary:amine_secondary,"1,4,7,10-Tetraazacyclotetradecane",3:6:9:12,amine_secondary:amine_secondary:amine_secondary:amine_secondary,3(amine_secondary) > 6(amine_secondary) > 9(amine_secondary) > 12(amine_secondary)
C1CCNCCNCCNCCNC1,4.62,3:6:9:12,amine_secondary:amine_secondary:amine_secondary:amine_secondary,"1,4,7,10-Tetraazacyclotetradecane",3:6:9:12,amine_secondary:amine_secondary:amine_secondary:amine_secondary,3(amine_secondary) > 6(amine_secondary) > 9(amine_secondary) > 12(amine_secondary)
C1CCNCCNCCNCCNC1,4.01,3:6:9:12,amine_secondary:amine_secondary:amine_secondary:amine_secondary,"1,4,7,10-Tetraazacyclotetradecane",3:6:9:12,amine_secondary:amine_secondary:amine_secondary:amine_secondary,3(amine_secondary) > 6(amine_secondary) > 9(amine_secondary) > 12(amine_secondary)
C1CCNCCNCCNCCNC1,4.86,3:6:9:12,amine_secondary:amine_secondary:amine_secondary:amine_secondary,"1,4,7,10-Tetraazacyclotetradecane",3:6:9:12,amine_secondary:amine_secondary:amine_secondary:amine_secondary,3(amine_secondary) > 6(amine_secondary) > 9(amine_secondary) > 12(amine_secondary)
C1CCNCCNCCNCCNC1,1.9,3:6:9:12,amine_secondary:amine_secondary:amine_secondary:amine_secondary,"1,4,7,10-Tetraazacyclotetradecane",3:6:9:12,amine_secondary:amine_secondary:amine_secondary:amine_secondary,3(amine_secondary) > 6(amine_secondary) > 9(amine_secondary) > 12(amine_secondary)
C1CCNCCNCCNCCNC1,2.0,3:6:9:12,amine_secondary:amine_secondary:amine_secondary:amine_secondary,"1,4,7,10-Tetraazacyclotetradecane",3:6:9:12,amine_secondary:amine_secondary:amine_secondary:amine_secondary,3(amine_secondary) > 6(amine_secondary) > 9(amine_secondary) > 12(amine_secondary)
C1CCNCCNCCNCCNCC1,9.83,3:6:9:12,amine_secondary:amine_secondary:amine_secondary:amine_secondary,"1,4,7,10-Tetraazacyclopentadecane",3:6:9:12,amine_secondary:amine_secondary:amine_secondary:amine_secondary,3(amine_secondary) > 6(amine_secondary) > 9(amine_secondary) > 12(amine_secondary)
C1CCNCCNCCNCCNCC1,10.25,3:6:9:12,amine_secondary:amine_secondary:amine_secondary:amine_secondary,"1,4,7,10-Tetraazacyclopentadecane",3:6:9:12,amine_secondary:amine_secondary:amine_secondary:amine_secondary,3(amine_secondary) > 6(amine_secondary) > 9(amine_secondary) > 12(amine_secondary)
C1CCNCCNCCNCCNCC1,10.33,3:6:9:12,amine_secondary:amine_secondary:amine_secondary:amine_secondary,"1,4,7,10-Tetraazacyclopentadecane",3:6:9:12,amine_secondary:amine_secondary:amine_secondary:amine_secondary,3(amine_secondary) > 6(amine_secondary) > 9(amine_secondary) > 12(amine_secondary)
C1CCNCCNCCNCCNCC1,8.95,3:6:9:12,amine_secondary:amine_secondary:amine_secondary:amine_secondary,"1,4,7,10-Tetraazacyclopentadecane",3:6:9:12,amine_secondary:amine_secondary:amine_secondary:amine_secondary,3(amine_secondary) > 6(amine_secondary) > 9(amine_secondary) > 12(amine_secondary)
C1CCNCCNCCNCCNCC1,9.23,3:6:9:12,amine_secondary:amine_secondary:amine_secondary:amine_secondary,"1,4,7,10-Tetraazacyclopentadecane",3:6:9:12,amine_secondary:amine_secondary:amine_secondary:amine_secondary,3(amine_secondary) > 6(amine_secondary) > 9(amine_secondary) > 12(amine_secondary)
C1CCNCCNCCNCCNCC1,9.48,3:6:9:12,amine_secondary:amine_secondary:amine_secondary:amine_secondary,"1,4,7,10-Tetraazacyclopentadecane",3:6:9:12,amine_secondary:amine_secondary:amine_secondary:amine_secondary,3(amine_secondary) > 6(amine_secondary) > 9(amine_secondary) > 12(amine_secondary)
C1CCNCCNCCNCCNCC1,5.4,3:6:9:12,amine_secondary:amine_secondary:amine_secondary:amine_secondary,"1,4,7,10-Tetraazacyclopentadecane",3:6:9:12,amine_secondary:amine_secondary:amine_secondary:amine_secondary,3(amine_secondary) > 6(amine_secondary) > 9(amine_secondary) > 12(amine_secondary)
C1CCNCCNCCNCCNCC1,5.17,3:6:9:12,amine_secondary:amine_secondary:amine_secondary:amine_secondary,"1,4,7,10-Tetraazacyclopentadecane",3:6:9:12,amine_secondary:amine_secondary:amine_secondary:amine_secondary,3(amine_secondary) > 6(amine_secondary) > 9(amine_secondary) > 12(amine_secondary)
C1CCNCCNCCNCCNCC1,5.71,3:6:9:12,amine_secondary:amine_secondary:amine_secondary:amine_secondary,"1,4,7,10-Tetraazacyclopentadecane",3:6:9:12,amine_secondary:amine_secondary:amine_secondary:amine_secondary,3(amine_secondary) > 6(amine_secondary) > 9(amine_secondary) > 12(amine_secondary)
C1CCNCCNCCNCCNCC1,1.6,3:6:9:12,amine_secondary:amine_secondary:amine_secondary:amine_secondary,"1,4,7,10-Tetraazacyclopentadecane",3:6:9:12,amine_secondary:amine_secondary:amine_secondary:amine_secondary,3(amine_secondary) > 6(amine_secondary) > 9(amine_secondary) > 12(amine_secondary)
C1CCNCCNCCNCCNCC1,1.3,3:6:9:12,amine_secondary:amine_secondary:amine_secondary:amine_secondary,"1,4,7,10-Tetraazacyclopentadecane",3:6:9:12,amine_secondary:amine_secondary:amine_secondary:amine_secondary,3(amine_secondary) > 6(amine_secondary) > 9(amine_secondary) > 12(amine_secondary)
C1CCCNCCNCCNCCNCC1,10.46,4:7:10:13,amine_secondary:amine_secondary:amine_secondary:amine_secondary,"1,4,7,10-Tetraazacyclohexadecane",4:7:10:13,amine_secondary:amine_secondary:amine_secondary:amine_secondary,4(amine_secondary) > 7(amine_secondary) > 10(amine_secondary) > 13(amine_secondary)
C1CCCNCCNCCNCCNCC1,9.34,4:7:10:13,amine_secondary:amine_secondary:amine_secondary:amine_secondary,"1,4,7,10-Tetraazacyclohexadecane",4:7:10:13,amine_secondary:amine_secondary:amine_secondary:amine_secondary,4(amine_secondary) > 7(amine_secondary) > 10(amine_secondary) > 13(amine_secondary)
C1CCCNCCNCCNCCNCC1,5.51,4:7:10:13,amine_secondary:amine_secondary:amine_secondary:amine_secondary,"1,4,7,10-Tetraazacyclohexadecane",4:7:10:13,amine_secondary:amine_secondary:amine_secondary:amine_secondary,4(amine_secondary) > 7(amine_secondary) > 10(amine_secondary) > 13(amine_secondary)
C1CCCNCCNCCNCCNCC1,1.9,4:7:10:13,amine_secondary:amine_secondary:amine_secondary:amine_secondary,"1,4,7,10-Tetraazacyclohexadecane",4:7:10:13,amine_secondary:amine_secondary:amine_secondary:amine_secondary,4(amine_secondary) > 7(amine_secondary) > 10(amine_secondary) > 13(amine_secondary)
NCCN1CCCNCCNCCNCCC1,10.92,0:7:10:13,amine_primary:amine_secondary:amine_secondary:amine_secondary,"11-(2-Aminoethyl)-1,4,7,11-tetraazacyclotetradecane",0:7:10:13,amine_primary:amine_secondary:amine_secondary:amine_secondary,0(amine_primary) > 7(amine_secondary) > 10(amine_secondary) > 13(amine_secondary)
NCCN1CCCNCCNCCNCCC1,9.79,0:7:10:13,amine_primary:amine_secondary:amine_secondary:amine_secondary,"11-(2-Aminoethyl)-1,4,7,11-tetraazacyclotetradecane",0:7:10:13,amine_primary:amine_secondary:amine_secondary:amine_secondary,0(amine_primary) > 7(amine_secondary) > 10(amine_secondary) > 13(amine_secondary)
NCCN1CCCNCCNCCNCCC1,8.61,0:7:10:13,amine_primary:amine_secondary:amine_secondary:amine_secondary,"11-(2-Aminoethyl)-1,4,7,11-tetraazacyclotetradecane",0:7:10:13,amine_primary:amine_secondary:amine_secondary:amine_secondary,0(amine_primary) > 7(amine_secondary) > 10(amine_secondary) > 13(amine_secondary)
NCCN1CCCNCCNCCNCCC1,1.9,0:7:10:13,amine_primary:amine_secondary:amine_secondary:amine_secondary,"11-(2-Aminoethyl)-1,4,7,11-tetraazacyclotetradecane",0:7:10:13,amine_primary:amine_secondary:amine_secondary:amine_secondary,0(amine_primary) > 7(amine_secondary) > 10(amine_secondary) > 13(amine_secondary)
NCCCN1CCCNCCNCCNCCC1,11.07,0:8:11:14,amine_primary:amine_secondary:amine_secondary:amine_secondary,"11-(3-Aminopropyl)-1,4,7,11-tetraazacyclotetradecane",0:8:11:14,amine_primary:amine_secondary:amine_secondary:amine_secondary,0(amine_primary) > 8(amine_secondary) > 11(amine_secondary) > 14(amine_secondary)
NCCCN1CCCNCCNCCNCCC1,9.98,0:8:11:14,amine_primary:amine_secondary:amine_secondary:amine_secondary,"11-(3-Aminopropyl)-1,4,7,11-tetraazacyclotetradecane",0:8:11:14,amine_primary:amine_secondary:amine_secondary:amine_secondary,0(amine_primary) > 8(amine_secondary) > 11(amine_secondary) > 14(amine_secondary)
NCCCN1CCCNCCNCCNCCC1,9.17,0:8:11:14,amine_primary:amine_secondary:amine_secondary:amine_secondary,"11-(3-Aminopropyl)-1,4,7,11-tetraazacyclotetradecane",0:8:11:14,amine_primary:amine_secondary:amine_secondary:amine_secondary,0(amine_primary) > 8(amine_secondary) > 11(amine_secondary) > 14(amine_secondary)
NCCCN1CCCNCCNCCNCCC1,3.64,0:8:11:14,amine_primary:amine_secondary:amine_secondary:amine_secondary,"11-(3-Aminopropyl)-1,4,7,11-tetraazacyclotetradecane",0:8:11:14,amine_primary:amine_secondary:amine_secondary:amine_secondary,0(amine_primary) > 8(amine_secondary) > 11(amine_secondary) > 14(amine_secondary)
C1CNCCNCCCNCCNC1,11.4,2:5:9:12,amine_secondary:amine_secondary:amine_secondary:amine_secondary,"1,4,8,11-Tetraazacyclotetradecane ([14]aneN4)(Cyclam)",2:5:9:12,amine_secondary:amine_secondary:amine_secondary:amine_secondary,2(amine_secondary) > 5(amine_secondary) > 9(amine_secondary) > 12(amine_secondary)
C1CNCCNCCCNCCNC1,11.11,2:5:9:12,amine_secondary:amine_secondary:amine_secondary:amine_secondary,"1,4,8,11-Tetraazacyclotetradecane ([14]aneN4)(Cyclam)",2:5:9:12,amine_secondary:amine_secondary:amine_secondary:amine_secondary,2(amine_secondary) > 5(amine_secondary) > 9(amine_secondary) > 12(amine_secondary)
C1CNCCNCCCNCCNC1,11.63,2:5:9:12,amine_secondary:amine_secondary:amine_secondary:amine_secondary,"1,4,8,11-Tetraazacyclotetradecane ([14]aneN4)(Cyclam)",2:5:9:12,amine_secondary:amine_secondary:amine_secondary:amine_secondary,2(amine_secondary) > 5(amine_secondary) > 9(amine_secondary) > 12(amine_secondary)
C1CNCCNCCCNCCNC1,10.28,2:5:9:12,amine_secondary:amine_secondary:amine_secondary:amine_secondary,"1,4,8,11-Tetraazacyclotetradecane ([14]aneN4)(Cyclam)",2:5:9:12,amine_secondary:amine_secondary:amine_secondary:amine_secondary,2(amine_secondary) > 5(amine_secondary) > 9(amine_secondary) > 12(amine_secondary)
C1CNCCNCCCNCCNC1,10.18,2:5:9:12,amine_secondary:amine_secondary:amine_secondary:amine_secondary,"1,4,8,11-Tetraazacyclotetradecane ([14]aneN4)(Cyclam)",2:5:9:12,amine_secondary:amine_secondary:amine_secondary:amine_secondary,2(amine_secondary) > 5(amine_secondary) > 9(amine_secondary) > 12(amine_secondary)
C1CNCCNCCCNCCNC1,10.62,2:5:9:12,amine_secondary:amine_secondary:amine_secondary:amine_secondary,"1,4,8,11-Tetraazacyclotetradecane ([14]aneN4)(Cyclam)",2:5:9:12,amine_secondary:amine_secondary:amine_secondary:amine_secondary,2(amine_secondary) > 5(amine_secondary) > 9(amine_secondary) > 12(amine_secondary)
C1CNCCNCCCNCCNC1,1.6,2:5:9:12,amine_secondary:amine_secondary:amine_secondary:amine_secondary,"1,4,8,11-Tetraazacyclotetradecane ([14]aneN4)(Cyclam)",2:5:9:12,amine_secondary:amine_secondary:amine_secondary:amine_secondary,2(amine_secondary) > 5(amine_secondary) > 9(amine_secondary) > 12(amine_secondary)
C1CNCCNCCCNCCNC1,1.4,2:5:9:12,amine_secondary:amine_secondary:amine_secondary:amine_secondary,"1,4,8,11-Tetraazacyclotetradecane ([14]aneN4)(Cyclam)",2:5:9:12,amine_secondary:amine_secondary:amine_secondary:amine_secondary,2(amine_secondary) > 5(amine_secondary) > 9(amine_secondary) > 12(amine_secondary)