SMILES,pKa,Dissociable_Atoms,Functional_Group,Name,Dissociable_Atoms_Ordered,Functional_Group_Ordered,Dissociation_Order
CC(C)C[C@H](NC(=O)[C@@H](CC(C)C)NC(=O)CN)C(O)=O,8.15,19:17,carboxylic_acid:amine_primary,Glycyl-D-leucyl-L-leucine,19:17,carboxylic_acid:amine_primary,19(carboxylic_acid) > 17(amine_primary)
CC(C)C[C@H](NC(=O)[C@@H](CC(C)C)NC(=O)CN)C(O)=O,3.46,19:17,carboxylic_acid:amine_primary,Glycyl-D-leucyl-L-leucine,19:17,carboxylic_acid:amine_primary,19(carboxylic_acid) > 17(amine_primary)
CC(C)C[C@H](N)C(=O)NCC(=O)N[C@@H](CC(C)C)C(O)=O,7.75,19:5,carboxylic_acid:amine_primary,L-Leucylglycyl-L-leucine,19:5,carboxylic_acid:amine_primary,19(carboxylic_acid) > 5(amine_primary)
CC(C)C[C@H](N)C(=O)NCC(=O)N[C@@H](CC(C)C)C(O)=O,3.33,19:5,carboxylic_acid:amine_primary,L-Leucylglycyl-L-leucine,19:5,carboxylic_acid:amine_primary,19(carboxylic_acid) > 5(amine_primary)
CC(C)C[C@H](N)C(=O)NCC(=O)N[C@H](CC(C)C)C(O)=O,7.79,19:5,carboxylic_acid:amine_primary,L-Leucylglycyl-D-leucine,19:5,carboxylic_acid:amine_primary,19(carboxylic_acid) > 5(amine_primary)
CC(C)C[C@H](N)C(=O)NCC(=O)N[C@H](CC(C)C)C(O)=O,3.32,19:5,carboxylic_acid:amine_primary,L-Leucylglycyl-D-leucine,19:5,carboxylic_acid:amine_primary,19(carboxylic_acid) > 5(amine_primary)
CC(C)C[C@@H](N)C(=O)NCC(=O)N[C@@H](CC(C)C)C(O)=O,7.81,19:5,carboxylic_acid:amine_primary,D-Leucylglycyl-L-leucine,19:5,carboxylic_acid:amine_primary,19(carboxylic_acid) > 5(amine_primary)
CC(C)C[C@@H](N)C(=O)NCC(=O)N[C@@H](CC(C)C)C(O)=O,3.33,19:5,carboxylic_acid:amine_primary,D-Leucylglycyl-L-leucine,19:5,carboxylic_acid:amine_primary,19(carboxylic_acid) > 5(amine_primary)
CC(C)C[C@H](N)C(=O)N[C@@H](CC(C)C)C(=O)NCC(O)=O,7.62,19:5,carboxylic_acid:amine_primary,L-Leucyl-L-leucylglycine,19:5,carboxylic_acid:amine_primary,19(carboxylic_acid) > 5(amine_primary)
CC(C)C[C@H](N)C(=O)N[C@@H](CC(C)C)C(=O)NCC(O)=O,3.56,19:5,carboxylic_acid:amine_primary,L-Leucyl-L-leucylglycine,19:5,carboxylic_acid:amine_primary,19(carboxylic_acid) > 5(amine_primary)
CC(C)C[C@H](N)C(=O)N[C@H](CC(C)C)C(=O)NCC(O)=O,7.89,19:5,carboxylic_acid:amine_primary,L-Leucyl-D-leucylglycine,19:5,carboxylic_acid:amine_primary,19(carboxylic_acid) > 5(amine_primary)
CC(C)C[C@H](N)C(=O)N[C@H](CC(C)C)C(=O)NCC(O)=O,3.33,19:5,carboxylic_acid:amine_primary,L-Leucyl-D-leucylglycine,19:5,carboxylic_acid:amine_primary,19(carboxylic_acid) > 5(amine_primary)
CC(C)C[C@@H](N)C(=O)N[C@@H](CC(C)C)C(=O)NCC(O)=O,7.87,19:5,carboxylic_acid:amine_primary,D-Leucyl-L-leucylglycine,19:5,carboxylic_acid:amine_primary,19(carboxylic_acid) > 5(amine_primary)
CC(C)C[C@@H](N)C(=O)N[C@@H](CC(C)C)C(=O)NCC(O)=O,3.33,19:5,carboxylic_acid:amine_primary,D-Leucyl-L-leucylglycine,19:5,carboxylic_acid:amine_primary,19(carboxylic_acid) > 5(amine_primary)
CC(C)C[C@H](N)C(=O)N[C@@H](CC(C)C)C(=O)N[C@@H](CC(C)C)C(O)=O,7.65,23:5,carboxylic_acid:amine_primary,L-Leucyl-L-leucyl-L-leucine,23:5,carboxylic_acid:amine_primary,23(carboxylic_acid) > 5(amine_primary)
CC(C)C[C@H](N)C(=O)N[C@@H](CC(C)C)C(=O)N[C@@H](CC(C)C)C(O)=O,3.59,23:5,carboxylic_acid:amine_primary,L-Leucyl-L-leucyl-L-leucine,23:5,carboxylic_acid:amine_primary,23(carboxylic_acid) > 5(amine_primary)
CC(C)(NC(=O)CN)C(=O)NCC(O)=O,8.2,13:7,carboxylic_acid:amine_primary,Glycyl-2-methylalanylglycine,13:7,carboxylic_acid:amine_primary,13(carboxylic_acid) > 7(amine_primary)
CC(C)(NC(=O)CN)C(=O)NCC(O)=O,3.33,13:7,carboxylic_acid:amine_primary,Glycyl-2-methylalanylglycine,13:7,carboxylic_acid:amine_primary,13(carboxylic_acid) > 7(amine_primary)
CC(N)C(=O)NC(C)(C)C(=O)NC(C)(C)C(O)=O,8.29,16:2,carboxylic_acid:amine_primary,DL-Alanyl-2-methylalanyl-2-methylalanine,16:2,carboxylic_acid:amine_primary,16(carboxylic_acid) > 2(amine_primary)
CC(N)C(=O)NC(C)(C)C(=O)NC(C)(C)C(O)=O,3.95,16:2,carboxylic_acid:amine_primary,DL-Alanyl-2-methylalanyl-2-methylalanine,16:2,carboxylic_acid:amine_primary,16(carboxylic_acid) > 2(amine_primary)
CC(C)(N)C(=O)NC(C)(C)C(=O)NC(C)(C)C(O)=O,8.11,17:3,carboxylic_acid:amine_primary,2-Methylalanyl-2-methylalanyl-2-methylalanine,17:3,carboxylic_acid:amine_primary,17(carboxylic_acid) > 3(amine_primary)
CC(C)(N)C(=O)NC(C)(C)C(=O)NC(C)(C)C(O)=O,3.82,17:3,carboxylic_acid:amine_primary,2-Methylalanyl-2-methylalanyl-2-methylalanine,17:3,carboxylic_acid:amine_primary,17(carboxylic_acid) > 3(amine_primary)
N[C@@H](Cc1ccccc1)C(=O)N[C@@H](Cc2ccccc2)C(=O)N[C@@H](Cc3ccccc3)C(O)=O,7.13,32:0,carboxylic_acid:amine_primary,L-Phenylalanyl-L-phenylalanyl-L-phenylalanine,32:0,carboxylic_acid:amine_primary,32(carboxylic_acid) > 0(amine_primary)
N[C@@H](Cc1ccccc1)C(=O)N[C@@H](Cc2ccccc2)C(=O)N[C@@H](Cc3ccccc3)C(O)=O,3.52,32:0,carboxylic_acid:amine_primary,L-Phenylalanyl-L-phenylalanyl-L-phenylalanine,32:0,carboxylic_acid:amine_primary,32(carboxylic_acid) > 0(amine_primary)
N[C@@H](CC(O)=O)C(=O)N[C@@H](CC(O)=O)C(=O)N[C@@H](CC(O)=O)C(O)=O,8.13,4:12:20:23:0,carboxylic_acid:carboxylic_acid:carboxylic_acid:carboxylic_acid:amine_primary,L-Aspartyl-L-aspartyl-L-aspartic acid,4:12:20:23:0,carboxylic_acid:carboxylic_acid:carboxylic_acid:carboxylic_acid:amine_primary,4(carboxylic_acid) > 12(carboxylic_acid) > 20(carboxylic_acid) > 23(carboxylic_acid) > 0(amine_primary)
N[C@@H](CC(O)=O)C(=O)N[C@@H](CC(O)=O)C(=O)N[C@@H](CC(O)=O)C(O)=O,4.78,4:12:20:23:0,carboxylic_acid:carboxylic_acid:carboxylic_acid:carboxylic_acid:amine_primary,L-Aspartyl-L-aspartyl-L-aspartic acid,4:12:20:23:0,carboxylic_acid:carboxylic_acid:carboxylic_acid:carboxylic_acid:amine_primary,4(carboxylic_acid) > 12(carboxylic_acid) > 20(carboxylic_acid) > 23(carboxylic_acid) > 0(amine_primary)
N[C@@H](CC(O)=O)C(=O)N[C@@H](CC(O)=O)C(=O)N[C@@H](CC(O)=O)C(O)=O,3.87,4:12:20:23:0,carboxylic_acid:carboxylic_acid:carboxylic_acid:carboxylic_acid:amine_primary,L-Aspartyl-L-aspartyl-L-aspartic acid,4:12:20:23:0,carboxylic_acid:carboxylic_acid:carboxylic_acid:carboxylic_acid:amine_primary,4(carboxylic_acid) > 12(carboxylic_acid) > 20(carboxylic_acid) > 23(carboxylic_acid) > 0(amine_primary)
N[C@@H](CC(O)=O)C(=O)N[C@@H](CC(O)=O)C(=O)N[C@@H](CC(O)=O)C(O)=O,2.04,4:12:20:23:0,carboxylic_acid:carboxylic_acid:carboxylic_acid:carboxylic_acid:amine_primary,L-Aspartyl-L-aspartyl-L-aspartic acid,4:12:20:23:0,carboxylic_acid:carboxylic_acid:carboxylic_acid:carboxylic_acid:amine_primary,4(carboxylic_acid) > 12(carboxylic_acid) > 20(carboxylic_acid) > 23(carboxylic_acid) > 0(amine_primary)
N[C@@H](CC(O)=O)C(=O)N[C@@H](CC(O)=O)C(=O)N[C@@H](CC(O)=O)C(O)=O,1.8,4:12:20:23:0,carboxylic_acid:carboxylic_acid:carboxylic_acid:carboxylic_acid:amine_primary,L-Aspartyl-L-aspartyl-L-aspartic acid,4:12:20:23:0,carboxylic_acid:carboxylic_acid:carboxylic_acid:carboxylic_acid:amine_primary,4(carboxylic_acid) > 12(carboxylic_acid) > 20(carboxylic_acid) > 23(carboxylic_acid) > 0(amine_primary)
NCC(=O)NCC(=O)N[C@@H](Cc1ccc(O)cc1)C(O)=O,9.75,19:0:4,carboxylic_acid:amine_primary:amine_secondary,Glycylglycyl-L-tyrosine,19:0:4,carboxylic_acid:amine_primary:amine_secondary,19(carboxylic_acid) > 0(amine_primary) > 4(amine_secondary)
NCC(=O)NCC(=O)N[C@@H](Cc1ccc(O)cc1)C(O)=O,7.91,19:0:4,carboxylic_acid:amine_primary:amine_secondary,Glycylglycyl-L-tyrosine,19:0:4,carboxylic_acid:amine_primary:amine_secondary,19(carboxylic_acid) > 0(amine_primary) > 4(amine_secondary)
NCC(=O)NCC(=O)N[C@@H](Cc1ccc(O)cc1)C(O)=O,3.19,19:0:4,carboxylic_acid:amine_primary:amine_secondary,Glycylglycyl-L-tyrosine,19:0:4,carboxylic_acid:amine_primary:amine_secondary,19(carboxylic_acid) > 0(amine_primary) > 4(amine_secondary)
NCC(=O)N[C@@H](Cc1ccc(O)cc1)C(=O)NCC(O)=O,9.78,19:0:4,carboxylic_acid:amine_primary:amine_secondary,Glycyl-L-tyrosylglycine,19:0:4,carboxylic_acid:amine_primary:amine_secondary,19(carboxylic_acid) > 0(amine_primary) > 4(amine_secondary)
NCC(=O)N[C@@H](Cc1ccc(O)cc1)C(=O)NCC(O)=O,7.92,19:0:4,carboxylic_acid:amine_primary:amine_secondary,Glycyl-L-tyrosylglycine,19:0:4,carboxylic_acid:amine_primary:amine_secondary,19(carboxylic_acid) > 0(amine_primary) > 4(amine_secondary)
NCC(=O)N[C@@H](Cc1ccc(O)cc1)C(=O)NCC(O)=O,3.36,19:0:4,carboxylic_acid:amine_primary:amine_secondary,Glycyl-L-tyrosylglycine,19:0:4,carboxylic_acid:amine_primary:amine_secondary,19(carboxylic_acid) > 0(amine_primary) > 4(amine_secondary)
N[C@@H](Cc1ccc(O)cc1)C(=O)NCC(=O)NCC(O)=O,10.09,19:0:12,carboxylic_acid:amine_primary:amine_secondary,L-Tyrosylglycylglycine,19:0:12,carboxylic_acid:amine_primary:amine_secondary,19(carboxylic_acid) > 0(amine_primary) > 12(amine_secondary)
N[C@@H](Cc1ccc(O)cc1)C(=O)NCC(=O)NCC(O)=O,7.37,19:0:12,carboxylic_acid:amine_primary:amine_secondary,L-Tyrosylglycylglycine,19:0:12,carboxylic_acid:amine_primary:amine_secondary,19(carboxylic_acid) > 0(amine_primary) > 12(amine_secondary)
N[C@@H](Cc1ccc(O)cc1)C(=O)NCC(=O)NCC(O)=O,3.22,19:0:12,carboxylic_acid:amine_primary:amine_secondary,L-Tyrosylglycylglycine,19:0:12,carboxylic_acid:amine_primary:amine_secondary,19(carboxylic_acid) > 0(amine_primary) > 12(amine_secondary)
CC(C)C[C@H](NC(=O)CN)C(=O)N[C@@H](Cc1ccc(O)cc1)C(O)=O,10.3,23:9:5,carboxylic_acid:amine_primary:amine_secondary,Glycyl-L-leucyl-L-tyrosine,23:9:5,carboxylic_acid:amine_primary:amine_secondary,23(carboxylic_acid) > 9(amine_primary) > 5(amine_secondary)
CC(C)C[C@H](NC(=O)CN)C(=O)N[C@@H](Cc1ccc(O)cc1)C(O)=O,8.07,23:9:5,carboxylic_acid:amine_primary:amine_secondary,Glycyl-L-leucyl-L-tyrosine,23:9:5,carboxylic_acid:amine_primary:amine_secondary,23(carboxylic_acid) > 9(amine_primary) > 5(amine_secondary)
CC(C)C[C@H](NC(=O)CN)C(=O)N[C@@H](Cc1ccc(O)cc1)C(O)=O,3.14,23:9:5,carboxylic_acid:amine_primary:amine_secondary,Glycyl-L-leucyl-L-tyrosine,23:9:5,carboxylic_acid:amine_primary:amine_secondary,23(carboxylic_acid) > 9(amine_primary) > 5(amine_secondary)
N[C@@H](Cc1ccc(O)cc1)C(=O)N[C@@H](Cc2ccc(O)cc2)C(=O)N[C@@H](Cc3ccc(O)cc3)C(O)=O,10.92,35:0:12:24:7,carboxylic_acid:amine_primary:amine_secondary:amine_secondary:phenol,L-Tyrosyl-L-tyrosyl-L-tyrosine,35:7:0:12:24,carboxylic_acid:phenol:amine_primary:amine_secondary:amine_secondary,35(carboxylic_acid) > 7(phenol) > 0(amine_primary) > 12(amine_secondary) > 24(amine_secondary)
N[C@@H](Cc1ccc(O)cc1)C(=O)N[C@@H](Cc2ccc(O)cc2)C(=O)N[C@@H](Cc3ccc(O)cc3)C(O)=O,9.95,35:0:12:24:7,carboxylic_acid:amine_primary:amine_secondary:amine_secondary:phenol,L-Tyrosyl-L-tyrosyl-L-tyrosine,35:7:0:12:24,carboxylic_acid:phenol:amine_primary:amine_secondary:amine_secondary,35(carboxylic_acid) > 7(phenol) > 0(amine_primary) > 12(amine_secondary) > 24(amine_secondary)
N[C@@H](Cc1ccc(O)cc1)C(=O)N[C@@H](Cc2ccc(O)cc2)C(=O)N[C@@H](Cc3ccc(O)cc3)C(O)=O,9.56,35:0:12:24:7,carboxylic_acid:amine_primary:amine_secondary:amine_secondary:phenol,L-Tyrosyl-L-tyrosyl-L-tyrosine,35:7:0:12:24,carboxylic_acid:phenol:amine_primary:amine_secondary:amine_secondary,35(carboxylic_acid) > 7(phenol) > 0(amine_primary) > 12(amine_secondary) > 24(amine_secondary)
N[C@@H](Cc1ccc(O)cc1)C(=O)N[C@@H](Cc2ccc(O)cc2)C(=O)N[C@@H](Cc3ccc(O)cc3)C(O)=O,7.22,35:0:12:24:7,carboxylic_acid:amine_primary:amine_secondary:amine_secondary:phenol,L-Tyrosyl-L-tyrosyl-L-tyrosine,35:7:0:12:24,carboxylic_acid:phenol:amine_primary:amine_secondary:amine_secondary,35(carboxylic_acid) > 7(phenol) > 0(amine_primary) > 12(amine_secondary) > 24(amine_secondary)
N[C@@H](Cc1ccc(O)cc1)C(=O)N[C@@H](Cc2ccc(O)cc2)C(=O)N[C@@H](Cc3ccc(O)cc3)C(O)=O,3.37,35:0:12:24:7,carboxylic_acid:amine_primary:amine_secondary:amine_secondary:phenol,L-Tyrosyl-L-tyrosyl-L-tyrosine,35:7:0:12:24,carboxylic_acid:phenol:amine_primary:amine_secondary:amine_secondary,35(carboxylic_acid) > 7(phenol) > 0(amine_primary) > 12(amine_secondary) > 24(amine_secondary)
NCC(=O)NCC(=O)N[C@@H](CS)C(O)=O,9.48,13:0:4,carboxylic_acid:amine_primary:amine_secondary,Glycylglycyl-L-cysteine,13:0:4,carboxylic_acid:amine_primary:amine_secondary,13(carboxylic_acid) > 0(amine_primary) > 4(amine_secondary)
NCC(=O)NCC(=O)N[C@@H](CS)C(O)=O,7.82,13:0:4,carboxylic_acid:amine_primary:amine_secondary,Glycylglycyl-L-cysteine,13:0:4,carboxylic_acid:amine_primary:amine_secondary,13(carboxylic_acid) > 0(amine_primary) > 4(amine_secondary)
NCC(=O)NCC(=O)N[C@@H](CS)C(O)=O,3.07,13:0:4,carboxylic_acid:amine_primary:amine_secondary,Glycylglycyl-L-cysteine,13:0:4,carboxylic_acid:amine_primary:amine_secondary,13(carboxylic_acid) > 0(amine_primary) > 4(amine_secondary)
C[C@H](N)C(=O)N[C@@H](C)C(=O)N[C@@H](CS)C(O)=O,9.73,15:2:5,carboxylic_acid:amine_primary:amine_secondary,L-Alanyl-L-alanyl-L-cysteine,15:2:5,carboxylic_acid:amine_primary:amine_secondary,15(carboxylic_acid) > 2(amine_primary) > 5(amine_secondary)
C[C@H](N)C(=O)N[C@@H](C)C(=O)N[C@@H](CS)C(O)=O,7.96,15:2:5,carboxylic_acid:amine_primary:amine_secondary,L-Alanyl-L-alanyl-L-cysteine,15:2:5,carboxylic_acid:amine_primary:amine_secondary,15(carboxylic_acid) > 2(amine_primary) > 5(amine_secondary)
C[C@H](N)C(=O)N[C@@H](C)C(=O)N[C@@H](CS)C(O)=O,3.22,15:2:5,carboxylic_acid:amine_primary:amine_secondary,L-Alanyl-L-alanyl-L-cysteine,15:2:5,carboxylic_acid:amine_primary:amine_secondary,15(carboxylic_acid) > 2(amine_primary) > 5(amine_secondary)
CN(CC(O)=O)C(=O)CNC(=O)CN,7.98,4:13,carboxylic_acid:amine_primary,Glycylglycylsarcosine,4:13,carboxylic_acid:amine_primary,4(carboxylic_acid) > 13(amine_primary)
CN(CC(O)=O)C(=O)CNC(=O)CN,2.9,4:13,carboxylic_acid:amine_primary,Glycylglycylsarcosine,4:13,carboxylic_acid:amine_primary,4(carboxylic_acid) > 13(amine_primary)
OC(=O)CNC(=O)[C@@H]1CCCN1C(=O)[C@@H]2CCCN2,9.15,0:4,carboxylic_acid:amine_secondary,L-Prolyl-L-prolylglycine,0:4,carboxylic_acid:amine_secondary,0(carboxylic_acid) > 4(amine_secondary)
OC(=O)CNC(=O)[C@@H]1CCCN1C(=O)[C@@H]2CCCN2,3.17,0:4,carboxylic_acid:amine_secondary,L-Prolyl-L-prolylglycine,0:4,carboxylic_acid:amine_secondary,0(carboxylic_acid) > 4(amine_secondary)
N[C@@H](Cc1ccc(O)cc1)C(=O)N2CCC[C@H]2C(=O)N[C@@H](Cc3ccccc3)C(O)=O,9.79,29:0:19,carboxylic_acid:amine_primary:amine_secondary,L-Tyrosyl-L-prolyl-L-phenylalanine,29:0:19,carboxylic_acid:amine_primary:amine_secondary,29(carboxylic_acid) > 0(amine_primary) > 19(amine_secondary)
N[C@@H](Cc1ccc(O)cc1)C(=O)N2CCC[C@H]2C(=O)N[C@@H](Cc3ccccc3)C(O)=O,7.47,29:0:19,carboxylic_acid:amine_primary:amine_secondary,L-Tyrosyl-L-prolyl-L-phenylalanine,29:0:19,carboxylic_acid:amine_primary:amine_secondary,29(carboxylic_acid) > 0(amine_primary) > 19(amine_secondary)
N[C@@H](Cc1ccc(O)cc1)C(=O)N2CCC[C@H]2C(=O)N[C@@H](Cc3ccccc3)C(O)=O,3.14,29:0:19,carboxylic_acid:amine_primary:amine_secondary,L-Tyrosyl-L-prolyl-L-phenylalanine,29:0:19,carboxylic_acid:amine_primary:amine_secondary,29(carboxylic_acid) > 0(amine_primary) > 19(amine_secondary)
NCC(=O)NC(CO)C(=O)NCC(O)=O,7.99,13:0,carboxylic_acid:amine_primary,Glycyl-DL-serylglycine,13:0,carboxylic_acid:amine_primary,13(carboxylic_acid) > 0(amine_primary)
NCC(=O)NC(CO)C(=O)NCC(O)=O,3.23,13:0,carboxylic_acid:amine_primary,Glycyl-DL-serylglycine,13:0,carboxylic_acid:amine_primary,13(carboxylic_acid) > 0(amine_primary)
NCC(=O)NCC(=O)N[C@@H](Cc1c[nH]cn1)C(O)=O,8.02,17:0:4,carboxylic_acid:amine_primary:amine_secondary,Glycylglycyl-L-histidine,17:0:4,carboxylic_acid:amine_primary:amine_secondary,17(carboxylic_acid) > 0(amine_primary) > 4(amine_secondary)
NCC(=O)NCC(=O)N[C@@H](Cc1c[nH]cn1)C(O)=O,8.22,17:0:4,carboxylic_acid:amine_primary:amine_secondary,Glycylglycyl-L-histidine,17:0:4,carboxylic_acid:amine_primary:amine_secondary,17(carboxylic_acid) > 0(amine_primary) > 4(amine_secondary)
NCC(=O)NCC(=O)N[C@@H](Cc1c[nH]cn1)C(O)=O,7.39,17:0:4,carboxylic_acid:amine_primary:amine_secondary,Glycylglycyl-L-histidine,17:0:4,carboxylic_acid:amine_primary:amine_secondary,17(carboxylic_acid) > 0(amine_primary) > 4(amine_secondary)
NCC(=O)NCC(=O)N[C@@H](Cc1c[nH]cn1)C(O)=O,6.72,17:0:4,carboxylic_acid:amine_primary:amine_secondary,Glycylglycyl-L-histidine,17:0:4,carboxylic_acid:amine_primary:amine_secondary,17(carboxylic_acid) > 0(amine_primary) > 4(amine_secondary)
NCC(=O)NCC(=O)N[C@@H](Cc1c[nH]cn1)C(O)=O,6.87,17:0:4,carboxylic_acid:amine_primary:amine_secondary,Glycylglycyl-L-histidine,17:0:4,carboxylic_acid:amine_primary:amine_secondary,17(carboxylic_acid) > 0(amine_primary) > 4(amine_secondary)
NCC(=O)NCC(=O)N[C@@H](Cc1c[nH]cn1)C(O)=O,6.4,17:0:4,carboxylic_acid:amine_primary:amine_secondary,Glycylglycyl-L-histidine,17:0:4,carboxylic_acid:amine_primary:amine_secondary,17(carboxylic_acid) > 0(amine_primary) > 4(amine_secondary)
NCC(=O)NCC(=O)N[C@@H](Cc1c[nH]cn1)C(O)=O,2.82,17:0:4,carboxylic_acid:amine_primary:amine_secondary,Glycylglycyl-L-histidine,17:0:4,carboxylic_acid:amine_primary:amine_secondary,17(carboxylic_acid) > 0(amine_primary) > 4(amine_secondary)
NCC(=O)NCC(=O)N[C@@H](Cc1c[nH]cn1)C(O)=O,2.84,17:0:4,carboxylic_acid:amine_primary:amine_secondary,Glycylglycyl-L-histidine,17:0:4,carboxylic_acid:amine_primary:amine_secondary,17(carboxylic_acid) > 0(amine_primary) > 4(amine_secondary)
NCC(=O)NCC(=O)N[C@@H](Cc1c[nH]cn1)C(O)=O,2.31,17:0:4,carboxylic_acid:amine_primary:amine_secondary,Glycylglycyl-L-histidine,17:0:4,carboxylic_acid:amine_primary:amine_secondary,17(carboxylic_acid) > 0(amine_primary) > 4(amine_secondary)
NCC(=O)N[C@@H](Cc1c[nH]cn1)C(=O)NCC(O)=O,8.0,17:0:4,carboxylic_acid:amine_primary:amine_secondary,Glycyl-L-histidylglycine,17:0:4,carboxylic_acid:amine_primary:amine_secondary,17(carboxylic_acid) > 0(amine_primary) > 4(amine_secondary)
NCC(=O)N[C@@H](Cc1c[nH]cn1)C(=O)NCC(O)=O,7.56,17:0:4,carboxylic_acid:amine_primary:amine_secondary,Glycyl-L-histidylglycine,17:0:4,carboxylic_acid:amine_primary:amine_secondary,17(carboxylic_acid) > 0(amine_primary) > 4(amine_secondary)
NCC(=O)N[C@@H](Cc1c[nH]cn1)C(=O)NCC(O)=O,7.96,17:0:4,carboxylic_acid:amine_primary:amine_secondary,Glycyl-L-histidylglycine,17:0:4,carboxylic_acid:amine_primary:amine_secondary,17(carboxylic_acid) > 0(amine_primary) > 4(amine_secondary)
NCC(=O)N[C@@H](Cc1c[nH]cn1)C(=O)NCC(O)=O,8.62,17:0:4,carboxylic_acid:amine_primary:amine_secondary,Glycyl-L-histidylglycine,17:0:4,carboxylic_acid:amine_primary:amine_secondary,17(carboxylic_acid) > 0(amine_primary) > 4(amine_secondary)
NCC(=O)N[C@@H](Cc1c[nH]cn1)C(=O)NCC(O)=O,6.56,17:0:4,carboxylic_acid:amine_primary:amine_secondary,Glycyl-L-histidylglycine,17:0:4,carboxylic_acid:amine_primary:amine_secondary,17(carboxylic_acid) > 0(amine_primary) > 4(amine_secondary)
NCC(=O)N[C@@H](Cc1c[nH]cn1)C(=O)NCC(O)=O,6.24,17:0:4,carboxylic_acid:amine_primary:amine_secondary,Glycyl-L-histidylglycine,17:0:4,carboxylic_acid:amine_primary:amine_secondary,17(carboxylic_acid) > 0(amine_primary) > 4(amine_secondary)
NCC(=O)N[C@@H](Cc1c[nH]cn1)C(=O)NCC(O)=O,6.92,17:0:4,carboxylic_acid:amine_primary:amine_secondary,Glycyl-L-histidylglycine,17:0:4,carboxylic_acid:amine_primary:amine_secondary,17(carboxylic_acid) > 0(amine_primary) > 4(amine_secondary)
NCC(=O)N[C@@H](Cc1c[nH]cn1)C(=O)NCC(O)=O,7.54,17:0:4,carboxylic_acid:amine_primary:amine_secondary,Glycyl-L-histidylglycine,17:0:4,carboxylic_acid:amine_primary:amine_secondary,17(carboxylic_acid) > 0(amine_primary) > 4(amine_secondary)
NCC(=O)N[C@@H](Cc1c[nH]cn1)C(=O)NCC(O)=O,3.1,17:0:4,carboxylic_acid:amine_primary:amine_secondary,Glycyl-L-histidylglycine,17:0:4,carboxylic_acid:amine_primary:amine_secondary,17(carboxylic_acid) > 0(amine_primary) > 4(amine_secondary)
NCC(=O)N[C@@H](Cc1c[nH]cn1)C(=O)NCC(O)=O,2.91,17:0:4,carboxylic_acid:amine_primary:amine_secondary,Glycyl-L-histidylglycine,17:0:4,carboxylic_acid:amine_primary:amine_secondary,17(carboxylic_acid) > 0(amine_primary) > 4(amine_secondary)
NCC(=O)N[C@@H](Cc1c[nH]cn1)C(=O)NCC(O)=O,3.26,17:0:4,carboxylic_acid:amine_primary:amine_secondary,Glycyl-L-histidylglycine,17:0:4,carboxylic_acid:amine_primary:amine_secondary,17(carboxylic_acid) > 0(amine_primary) > 4(amine_secondary)
NCC(=O)N[C@@H](Cc1c[nH]cn1)C(=O)NCC(O)=O,3.57,17:0:4,carboxylic_acid:amine_primary:amine_secondary,Glycyl-L-histidylglycine,17:0:4,carboxylic_acid:amine_primary:amine_secondary,17(carboxylic_acid) > 0(amine_primary) > 4(amine_secondary)